<?xml version="1.0"?>
<VTKFile type="PolyData" version="0.1">
  <PolyData>
    <Piece NumberOfPoints="4" NumberOfPolys="1">
      <Points>
        <DataArray type="Float32" Name="Fault Patch" NumberOfComponents="3" format="ascii">
-700.000000 -300.000000 223.308731
-729.998819 -300.266214 223.308731
-729.732605 -330.265033 263.573012
-699.733786 -329.998819 263.573012
        </DataArray>
      </Points>
      <Polys>
        <DataArray type="Int32" Name="connectivity" format="ascii" RangeMin="0" RangeMax="-1">
0 1 2 3
        </DataArray>
        <DataArray type="Int32" Name="offsets" format="ascii" RangeMin="4" RangeMax="4">
          4
        </DataArray>
      </Polys>
      <CellData Scalar="geometry">
        <DataArray type="Float32" Name="strike" NumberOfComponents="1" format="ascii">
-179.491562
        </DataArray>
        <DataArray type="Float32" Name="dip" NumberOfComponents="1" format="ascii">
53.311043
        </DataArray>
        <DataArray type="Float32" Name="unit slip" NumberOfComponents="3" format="ascii">
-0.999961 -0.008874 -0.000000
        </DataArray>
      </CellData>
    </Piece>
    <Piece NumberOfPoints="4" NumberOfPolys="1">
      <Points>
        <DataArray type="Float32" Name="Fault Patch" NumberOfComponents="3" format="ascii">
-670.000000 -300.000000 213.925308
-699.991374 -300.719360 213.925308
-699.272014 -330.710734 254.169178
-669.280640 -329.991374 254.169178
        </DataArray>
      </Points>
      <Polys>
        <DataArray type="Int32" Name="connectivity" format="ascii" RangeMin="0" RangeMax="-1">
0 1 2 3
        </DataArray>
        <DataArray type="Int32" Name="offsets" format="ascii" RangeMin="4" RangeMax="4">
          4
        </DataArray>
      </Polys>
      <CellData Scalar="geometry">
        <DataArray type="Float32" Name="strike" NumberOfComponents="1" format="ascii">
-178.625992
        </DataArray>
        <DataArray type="Float32" Name="dip" NumberOfComponents="1" format="ascii">
53.297123
        </DataArray>
        <DataArray type="Float32" Name="unit slip" NumberOfComponents="3" format="ascii">
-0.999712 -0.023979 0.000000
        </DataArray>
      </CellData>
    </Piece>
    <Piece NumberOfPoints="4" NumberOfPolys="1">
      <Points>
        <DataArray type="Float32" Name="Fault Patch" NumberOfComponents="3" format="ascii">
-640.000000 -300.000000 204.500183
-669.970569 -301.328520 204.500183
-668.642050 -331.299089 244.260711
-638.671480 -329.970569 244.260711
        </DataArray>
      </Points>
      <Polys>
        <DataArray type="Int32" Name="connectivity" format="ascii" RangeMin="0" RangeMax="-1">
0 1 2 3
        </DataArray>
        <DataArray type="Int32" Name="offsets" format="ascii" RangeMin="4" RangeMax="4">
          4
        </DataArray>
      </Polys>
      <CellData Scalar="geometry">
        <DataArray type="Float32" Name="strike" NumberOfComponents="1" format="ascii">
-177.461884
        </DataArray>
        <DataArray type="Float32" Name="dip" NumberOfComponents="1" format="ascii">
52.964821
        </DataArray>
        <DataArray type="Float32" Name="unit slip" NumberOfComponents="3" format="ascii">
-0.999019 -0.044284 -0.000000
        </DataArray>
      </CellData>
    </Piece>
    <Piece NumberOfPoints="4" NumberOfPolys="1">
      <Points>
        <DataArray type="Float32" Name="Fault Patch" NumberOfComponents="3" format="ascii">
-610.000000 -300.000000 197.279434
-639.935097 -301.972298 197.279434
-637.962799 -331.907395 235.195647
-608.027702 -329.935097 235.195647
        </DataArray>
      </Points>
      <Polys>
        <DataArray type="Int32" Name="connectivity" format="ascii" RangeMin="0" RangeMax="-1">
0 1 2 3
        </DataArray>
        <DataArray type="Int32" Name="offsets" format="ascii" RangeMin="4" RangeMax="4">
          4
        </DataArray>
      </Polys>
      <CellData Scalar="geometry">
        <DataArray type="Float32" Name="strike" NumberOfComponents="1" format="ascii">
-176.230469
        </DataArray>
        <DataArray type="Float32" Name="dip" NumberOfComponents="1" format="ascii">
51.648312
        </DataArray>
        <DataArray type="Float32" Name="unit slip" NumberOfComponents="3" format="ascii">
-0.997837 -0.065743 -0.000000
        </DataArray>
      </CellData>
    </Piece>
    <Piece NumberOfPoints="4" NumberOfPolys="1">
      <Points>
        <DataArray type="Float32" Name="Fault Patch" NumberOfComponents="3" format="ascii">
-580.000000 -300.000000 192.766327
-609.878024 -302.702533 192.766327
-607.175491 -332.580557 227.706242
-577.297467 -329.878024 227.706242
        </DataArray>
      </Points>
      <Polys>
        <DataArray type="Int32" Name="connectivity" format="ascii" RangeMin="0" RangeMax="-1">
0 1 2 3
        </DataArray>
        <DataArray type="Int32" Name="offsets" format="ascii" RangeMin="4" RangeMax="4">
          4
        </DataArray>
      </Polys>
      <CellData Scalar="geometry">
        <DataArray type="Float32" Name="strike" NumberOfComponents="1" format="ascii">
-174.831535
        </DataArray>
        <DataArray type="Float32" Name="dip" NumberOfComponents="1" format="ascii">
49.350056
        </DataArray>
        <DataArray type="Float32" Name="unit slip" NumberOfComponents="3" format="ascii">
-0.995934 -0.090084 -0.000000
        </DataArray>
      </CellData>
    </Piece>
    <Piece NumberOfPoints="4" NumberOfPolys="1">
      <Points>
        <DataArray type="Float32" Name="Fault Patch" NumberOfComponents="3" format="ascii">
-550.000000 -300.000000 190.990463
-579.808720 -303.382335 190.990463
-576.426385 -333.191056 222.213268
-546.617665 -329.808721 222.213268
        </DataArray>
      </Points>
      <Polys>
        <DataArray type="Int32" Name="connectivity" format="ascii" RangeMin="0" RangeMax="-1">
0 1 2 3
        </DataArray>
        <DataArray type="Int32" Name="offsets" format="ascii" RangeMin="4" RangeMax="4">
          4
        </DataArray>
      </Polys>
      <CellData Scalar="geometry">
        <DataArray type="Float32" Name="strike" NumberOfComponents="1" format="ascii">
-173.526451
        </DataArray>
        <DataArray type="Float32" Name="dip" NumberOfComponents="1" format="ascii">
46.144218
        </DataArray>
        <DataArray type="Float32" Name="unit slip" NumberOfComponents="3" format="ascii">
-0.993624 -0.112745 -0.000000
        </DataArray>
      </CellData>
    </Piece>
    <Piece NumberOfPoints="4" NumberOfPolys="1">
      <Points>
        <DataArray type="Float32" Name="Fault Patch" NumberOfComponents="3" format="ascii">
-520.000000 -300.000000 185.989944
-549.694002 -304.273900 185.989944
-545.420102 -333.967902 214.538377
-515.726100 -329.694002 214.538377
        </DataArray>
      </Points>
      <Polys>
        <DataArray type="Int32" Name="connectivity" format="ascii" RangeMin="0" RangeMax="-1">
0 1 2 3
        </DataArray>
        <DataArray type="Int32" Name="offsets" format="ascii" RangeMin="4" RangeMax="4">
          4
        </DataArray>
      </Polys>
      <CellData Scalar="geometry">
        <DataArray type="Float32" Name="strike" NumberOfComponents="1" format="ascii">
-171.809586
        </DataArray>
        <DataArray type="Float32" Name="dip" NumberOfComponents="1" format="ascii">
43.579781
        </DataArray>
        <DataArray type="Float32" Name="unit slip" NumberOfComponents="3" format="ascii">
-0.989800 -0.142463 0.000000
        </DataArray>
      </CellData>
    </Piece>
    <Piece NumberOfPoints="4" NumberOfPolys="1">
      <Points>
        <DataArray type="Float32" Name="Fault Patch" NumberOfComponents="3" format="ascii">
-490.000000 -300.000000 180.059067
-519.536626 -305.252404 180.059067
-514.284222 -334.789029 207.313778
-484.747596 -329.536625 207.313778
        </DataArray>
      </Points>
      <Polys>
        <DataArray type="Int32" Name="connectivity" format="ascii" RangeMin="0" RangeMax="-1">
0 1 2 3
        </DataArray>
        <DataArray type="Int32" Name="offsets" format="ascii" RangeMin="4" RangeMax="4">
          4
        </DataArray>
      </Polys>
      <CellData Scalar="geometry">
        <DataArray type="Float32" Name="strike" NumberOfComponents="1" format="ascii">
-169.916679
        </DataArray>
        <DataArray type="Float32" Name="dip" NumberOfComponents="1" format="ascii">
42.254845
        </DataArray>
        <DataArray type="Float32" Name="unit slip" NumberOfComponents="3" format="ascii">
-0.984554 -0.175080 -0.000000
        </DataArray>
      </CellData>
    </Piece>
    <Piece NumberOfPoints="4" NumberOfPolys="1">
      <Points>
        <DataArray type="Float32" Name="Fault Patch" NumberOfComponents="3" format="ascii">
-460.000000 -300.000000 169.879303
-489.209691 -306.840611 169.879303
-482.369080 -336.050302 194.790379
-453.159389 -329.209691 194.790379
        </DataArray>
      </Points>
      <Polys>
        <DataArray type="Int32" Name="connectivity" format="ascii" RangeMin="0" RangeMax="-1">
0 1 2 3
        </DataArray>
        <DataArray type="Int32" Name="offsets" format="ascii" RangeMin="4" RangeMax="4">
          4
        </DataArray>
      </Polys>
      <CellData Scalar="geometry">
        <DataArray type="Float32" Name="strike" NumberOfComponents="1" format="ascii">
-166.819450
        </DataArray>
        <DataArray type="Float32" Name="dip" NumberOfComponents="1" format="ascii">
39.705196
        </DataArray>
        <DataArray type="Float32" Name="unit slip" NumberOfComponents="3" format="ascii">
-0.973656 -0.228020 -0.000000
        </DataArray>
      </CellData>
    </Piece>
    <Piece NumberOfPoints="4" NumberOfPolys="1">
      <Points>
        <DataArray type="Float32" Name="Fault Patch" NumberOfComponents="3" format="ascii">
-430.000000 -300.000000 156.144714
-458.689493 -308.770005 156.144714
-449.919488 -337.459498 178.234669
-421.229995 -328.689493 178.234669
        </DataArray>
      </Points>
      <Polys>
        <DataArray type="Int32" Name="connectivity" format="ascii" RangeMin="0" RangeMax="-1">
0 1 2 3
        </DataArray>
        <DataArray type="Int32" Name="offsets" format="ascii" RangeMin="4" RangeMax="4">
          4
        </DataArray>
      </Polys>
      <CellData Scalar="geometry">
        <DataArray type="Float32" Name="strike" NumberOfComponents="1" format="ascii">
-163.002289
        </DataArray>
        <DataArray type="Float32" Name="dip" NumberOfComponents="1" format="ascii">
36.365398
        </DataArray>
        <DataArray type="Float32" Name="unit slip" NumberOfComponents="3" format="ascii">
-0.956316 -0.292333 -0.000000
        </DataArray>
      </CellData>
    </Piece>
    <Piece NumberOfPoints="4" NumberOfPolys="1">
      <Points>
        <DataArray type="Float32" Name="Fault Patch" NumberOfComponents="3" format="ascii">
-400.000000 -300.000000 142.859344
-428.056408 -310.622522 142.859344
-417.433885 -338.678930 162.403044
-389.377478 -328.056408 162.403044
        </DataArray>
      </Points>
      <Polys>
        <DataArray type="Int32" Name="connectivity" format="ascii" RangeMin="0" RangeMax="-1">
0 1 2 3
        </DataArray>
        <DataArray type="Int32" Name="offsets" format="ascii" RangeMin="4" RangeMax="4">
          4
        </DataArray>
      </Polys>
      <CellData Scalar="geometry">
        <DataArray type="Float32" Name="strike" NumberOfComponents="1" format="ascii">
-159.262680
        </DataArray>
        <DataArray type="Float32" Name="dip" NumberOfComponents="1" format="ascii">
33.082500
        </DataArray>
        <DataArray type="Float32" Name="unit slip" NumberOfComponents="3" format="ascii">
-0.935214 -0.354084 -0.000000
        </DataArray>
      </CellData>
    </Piece>
    <Piece NumberOfPoints="4" NumberOfPolys="1">
      <Points>
        <DataArray type="Float32" Name="Fault Patch" NumberOfComponents="3" format="ascii">
-370.000000 -300.000000 129.670227
-397.352820 -312.321657 129.670227
-385.031163 -339.674477 146.968800
-357.678343 -327.352820 146.968800
        </DataArray>
      </Points>
      <Polys>
        <DataArray type="Int32" Name="connectivity" format="ascii" RangeMin="0" RangeMax="-1">
0 1 2 3
        </DataArray>
        <DataArray type="Int32" Name="offsets" format="ascii" RangeMin="4" RangeMax="4">
          4
        </DataArray>
      </Polys>
      <CellData Scalar="geometry">
        <DataArray type="Float32" Name="strike" NumberOfComponents="1" format="ascii">
-155.749809
        </DataArray>
        <DataArray type="Float32" Name="dip" NumberOfComponents="1" format="ascii">
29.968571
        </DataArray>
        <DataArray type="Float32" Name="unit slip" NumberOfComponents="3" format="ascii">
-0.911761 -0.410722 -0.000000
        </DataArray>
      </CellData>
    </Piece>
    <Piece NumberOfPoints="4" NumberOfPolys="1">
      <Points>
        <DataArray type="Float32" Name="Fault Patch" NumberOfComponents="3" format="ascii">
-700.000000 -270.000000 183.671799
-729.998886 -270.258489 183.671799
-729.740398 -300.257375 221.894088
-699.741511 -299.998887 221.894088
        </DataArray>
      </Points>
      <Polys>
        <DataArray type="Int32" Name="connectivity" format="ascii" RangeMin="0" RangeMax="-1">
0 1 2 3
        </DataArray>
        <DataArray type="Int32" Name="offsets" format="ascii" RangeMin="4" RangeMax="4">
          4
        </DataArray>
      </Polys>
      <CellData Scalar="geometry">
        <DataArray type="Float32" Name="strike" NumberOfComponents="1" format="ascii">
-179.506317
        </DataArray>
        <DataArray type="Float32" Name="dip" NumberOfComponents="1" format="ascii">
51.872257
        </DataArray>
        <DataArray type="Float32" Name="unit slip" NumberOfComponents="3" format="ascii">
-0.999963 -0.008616 -0.000000
        </DataArray>
      </CellData>
    </Piece>
    <Piece NumberOfPoints="4" NumberOfPolys="1">
      <Points>
        <DataArray type="Float32" Name="Fault Patch" NumberOfComponents="3" format="ascii">
-670.000000 -270.000000 173.979630
-699.990748 -270.745011 173.979630
-699.245737 -300.735759 211.822055
-669.254989 -299.990748 211.822055
        </DataArray>
      </Points>
      <Polys>
        <DataArray type="Int32" Name="connectivity" format="ascii" RangeMin="0" RangeMax="-1">
0 1 2 3
        </DataArray>
        <DataArray type="Int32" Name="offsets" format="ascii" RangeMin="4" RangeMax="4">
          4
        </DataArray>
      </Polys>
      <CellData Scalar="geometry">
        <DataArray type="Float32" Name="strike" NumberOfComponents="1" format="ascii">
-178.576988
        </DataArray>
        <DataArray type="Float32" Name="dip" NumberOfComponents="1" format="ascii">
51.593990
        </DataArray>
        <DataArray type="Float32" Name="unit slip" NumberOfComponents="3" format="ascii">
-0.999692 -0.024834 -0.000000
        </DataArray>
      </CellData>
    </Piece>
    <Piece NumberOfPoints="4" NumberOfPolys="1">
      <Points>
        <DataArray type="Float32" Name="Fault Patch" NumberOfComponents="3" format="ascii">
-640.000000 -270.000000 165.399384
-669.969748 -271.346913 165.399384
-668.622835 -301.316662 202.457684
-638.653087 -299.969748 202.457684
        </DataArray>
      </Points>
      <Polys>
        <DataArray type="Int32" Name="connectivity" format="ascii" RangeMin="0" RangeMax="-1">
0 1 2 3
        </DataArray>
        <DataArray type="Int32" Name="offsets" format="ascii" RangeMin="4" RangeMax="4">
          4
        </DataArray>
      </Polys>
      <CellData Scalar="geometry">
        <DataArray type="Float32" Name="strike" NumberOfComponents="1" format="ascii">
-177.426720
        </DataArray>
        <DataArray type="Float32" Name="dip" NumberOfComponents="1" format="ascii">
51.008610
        </DataArray>
        <DataArray type="Float32" Name="unit slip" NumberOfComponents="3" format="ascii">
-0.998992 -0.044897 -0.000000
        </DataArray>
      </CellData>
    </Piece>
    <Piece NumberOfPoints="4" NumberOfPolys="1">
      <Points>
        <DataArray type="Float32" Name="Fault Patch" NumberOfComponents="3" format="ascii">
-610.000000 -270.000000 160.001312
-639.931651 -272.023923 160.001312
-637.907728 -301.955574 195.096502
-607.976077 -299.931651 195.096502
        </DataArray>
      </Points>
      <Polys>
        <DataArray type="Int32" Name="connectivity" format="ascii" RangeMin="0" RangeMax="-1">
0 1 2 3
        </DataArray>
        <DataArray type="Int32" Name="offsets" format="ascii" RangeMin="4" RangeMax="4">
          4
        </DataArray>
      </Polys>
      <CellData Scalar="geometry">
        <DataArray type="Float32" Name="strike" NumberOfComponents="1" format="ascii">
-176.131653
        </DataArray>
        <DataArray type="Float32" Name="dip" NumberOfComponents="1" format="ascii">
49.475582
        </DataArray>
        <DataArray type="Float32" Name="unit slip" NumberOfComponents="3" format="ascii">
-0.997722 -0.067464 -0.000000
        </DataArray>
      </CellData>
    </Piece>
    <Piece NumberOfPoints="4" NumberOfPolys="1">
      <Points>
        <DataArray type="Float32" Name="Fault Patch" NumberOfComponents="3" format="ascii">
-580.000000 -270.000000 158.456451
-609.875208 -272.733484 158.456451
-607.141724 -302.608692 191.048533
-577.266516 -299.875208 191.048533
        </DataArray>
      </Points>
      <Polys>
        <DataArray type="Int32" Name="connectivity" format="ascii" RangeMin="0" RangeMax="-1">
0 1 2 3
        </DataArray>
        <DataArray type="Int32" Name="offsets" format="ascii" RangeMin="4" RangeMax="4">
          4
        </DataArray>
      </Polys>
      <CellData Scalar="geometry">
        <DataArray type="Float32" Name="strike" NumberOfComponents="1" format="ascii">
-174.772179
        </DataArray>
        <DataArray type="Float32" Name="dip" NumberOfComponents="1" format="ascii">
47.371395
        </DataArray>
        <DataArray type="Float32" Name="unit slip" NumberOfComponents="3" format="ascii">
-0.995840 -0.091116 0.000000
        </DataArray>
      </CellData>
    </Piece>
    <Piece NumberOfPoints="4" NumberOfPolys="1">
      <Points>
        <DataArray type="Float32" Name="Fault Patch" NumberOfComponents="3" format="ascii">
-550.000000 -270.000000 160.126617
-579.802828 -273.433863 160.126617
-576.368965 -303.236691 189.580962
-546.566137 -299.802828 189.580962
        </DataArray>
      </Points>
      <Polys>
        <DataArray type="Int32" Name="connectivity" format="ascii" RangeMin="0" RangeMax="-1">
0 1 2 3
        </DataArray>
        <DataArray type="Int32" Name="offsets" format="ascii" RangeMin="4" RangeMax="4">
          4
        </DataArray>
      </Polys>
      <CellData Scalar="geometry">
        <DataArray type="Float32" Name="strike" NumberOfComponents="1" format="ascii">
-173.427399
        </DataArray>
        <DataArray type="Float32" Name="dip" NumberOfComponents="1" format="ascii">
44.474171
        </DataArray>
        <DataArray type="Float32" Name="unit slip" NumberOfComponents="3" format="ascii">
-0.993428 -0.114462 -0.000000
        </DataArray>
      </CellData>
    </Piece>
    <Piece NumberOfPoints="4" NumberOfPolys="1">
      <Points>
        <DataArray type="Float32" Name="Fault Patch" NumberOfComponents="3" format="ascii">
-520.000000 -270.000000 157.318390
-549.667971 -274.451010 157.318390
-545.216961 -304.118981 184.285987
-515.548990 -299.667971 184.285987
        </DataArray>
      </Points>
      <Polys>
        <DataArray type="Int32" Name="connectivity" format="ascii" RangeMin="0" RangeMax="-1">
0 1 2 3
        </DataArray>
        <DataArray type="Int32" Name="offsets" format="ascii" RangeMin="4" RangeMax="4">
          4
        </DataArray>
      </Polys>
      <CellData Scalar="geometry">
        <DataArray type="Float32" Name="strike" NumberOfComponents="1" format="ascii">
-171.467697
        </DataArray>
        <DataArray type="Float32" Name="dip" NumberOfComponents="1" format="ascii">
41.953003
        </DataArray>
        <DataArray type="Float32" Name="unit slip" NumberOfComponents="3" format="ascii">
-0.988932 -0.148367 -0.000000
        </DataArray>
      </CellData>
    </Piece>
    <Piece NumberOfPoints="4" NumberOfPolys="1">
      <Points>
        <DataArray type="Float32" Name="Fault Patch" NumberOfComponents="3" format="ascii">
-490.000000 -270.000000 150.578232
-519.433307 -275.803484 150.578232
-513.629823 -305.236791 175.698649
-484.196516 -299.433307 175.698649
        </DataArray>
      </Points>
      <Polys>
        <DataArray type="Int32" Name="connectivity" format="ascii" RangeMin="0" RangeMax="-1">
0 1 2 3
        </DataArray>
        <DataArray type="Int32" Name="offsets" format="ascii" RangeMin="4" RangeMax="4">
          4
        </DataArray>
      </Polys>
      <CellData Scalar="geometry">
        <DataArray type="Float32" Name="strike" NumberOfComponents="1" format="ascii">
-168.845840
        </DataArray>
        <DataArray type="Float32" Name="dip" NumberOfComponents="1" format="ascii">
39.941029
        </DataArray>
        <DataArray type="Float32" Name="unit slip" NumberOfComponents="3" format="ascii">
-0.981110 -0.193449 -0.000000
        </DataArray>
      </CellData>
    </Piece>
    <Piece NumberOfPoints="4" NumberOfPolys="1">
      <Points>
        <DataArray type="Float32" Name="Fault Patch" NumberOfComponents="3" format="ascii">
-460.000000 -270.000000 141.744934
-489.047241 -277.500521 141.744934
-481.546720 -306.547761 164.564879
-452.499479 -299.047241 164.564879
        </DataArray>
      </Points>
      <Polys>
        <DataArray type="Int32" Name="connectivity" format="ascii" RangeMin="0" RangeMax="-1">
0 1 2 3
        </DataArray>
        <DataArray type="Int32" Name="offsets" format="ascii" RangeMin="4" RangeMax="4">
          4
        </DataArray>
      </Polys>
      <CellData Scalar="geometry">
        <DataArray type="Float32" Name="strike" NumberOfComponents="1" format="ascii">
-165.521461
        </DataArray>
        <DataArray type="Float32" Name="dip" NumberOfComponents="1" format="ascii">
37.258972
        </DataArray>
        <DataArray type="Float32" Name="unit slip" NumberOfComponents="3" format="ascii">
-0.968241 -0.250017 -0.000000
        </DataArray>
      </CellData>
    </Piece>
    <Piece NumberOfPoints="4" NumberOfPolys="1">
      <Points>
        <DataArray type="Float32" Name="Fault Patch" NumberOfComponents="3" format="ascii">
-430.000000 -270.000000 130.514038
-458.468678 -279.462262 130.514038
-449.006416 -307.930939 150.763426
-420.537738 -298.468677 150.763426
        </DataArray>
      </Points>
      <Polys>
        <DataArray type="Int32" Name="connectivity" format="ascii" RangeMin="0" RangeMax="-1">
0 1 2 3
        </DataArray>
        <DataArray type="Int32" Name="offsets" format="ascii" RangeMin="4" RangeMax="4">
          4
        </DataArray>
      </Polys>
      <CellData Scalar="geometry">
        <DataArray type="Float32" Name="strike" NumberOfComponents="1" format="ascii">
-161.614510
        </DataArray>
        <DataArray type="Float32" Name="dip" NumberOfComponents="1" format="ascii">
34.018547
        </DataArray>
        <DataArray type="Float32" Name="unit slip" NumberOfComponents="3" format="ascii">
-0.948956 -0.315409 0.000000
        </DataArray>
      </CellData>
    </Piece>
    <Piece NumberOfPoints="4" NumberOfPolys="1">
      <Points>
        <DataArray type="Float32" Name="Fault Patch" NumberOfComponents="3" format="ascii">
-400.000000 -270.000000 118.084618
-427.792355 -281.295354 118.084618
-416.497000 -309.087709 135.945593
-388.704646 -297.792354 135.945593
        </DataArray>
      </Points>
      <Polys>
        <DataArray type="Int32" Name="connectivity" format="ascii" RangeMin="0" RangeMax="-1">
0 1 2 3
        </DataArray>
        <DataArray type="Int32" Name="offsets" format="ascii" RangeMin="4" RangeMax="4">
          4
        </DataArray>
      </Polys>
      <CellData Scalar="geometry">
        <DataArray type="Float32" Name="strike" NumberOfComponents="1" format="ascii">
-157.882217
        </DataArray>
        <DataArray type="Float32" Name="dip" NumberOfComponents="1" format="ascii">
30.768124
        </DataArray>
        <DataArray type="Float32" Name="unit slip" NumberOfComponents="3" format="ascii">
-0.926412 -0.376512 -0.000000
        </DataArray>
      </CellData>
    </Piece>
    <Piece NumberOfPoints="4" NumberOfPolys="1">
      <Points>
        <DataArray type="Float32" Name="Fault Patch" NumberOfComponents="3" format="ascii">
-370.000000 -270.000000 105.953148
-397.040133 -282.993506 105.953148
-384.046628 -310.033639 121.671936
-357.006494 -297.040133 121.671936
        </DataArray>
      </Points>
      <Polys>
        <DataArray type="Int32" Name="connectivity" format="ascii" RangeMin="0" RangeMax="-1">
0 1 2 3
        </DataArray>
        <DataArray type="Int32" Name="offsets" format="ascii" RangeMin="4" RangeMax="4">
          4
        </DataArray>
      </Polys>
      <CellData Scalar="geometry">
        <DataArray type="Float32" Name="strike" NumberOfComponents="1" format="ascii">
-154.334473
        </DataArray>
        <DataArray type="Float32" Name="dip" NumberOfComponents="1" format="ascii">
27.652723
        </DataArray>
        <DataArray type="Float32" Name="unit slip" NumberOfComponents="3" format="ascii">
-0.901338 -0.433117 -0.000000
        </DataArray>
      </CellData>
    </Piece>
    <Piece NumberOfPoints="4" NumberOfPolys="1">
      <Points>
        <DataArray type="Float32" Name="Fault Patch" NumberOfComponents="3" format="ascii">
-700.000000 -240.000000 148.395386
-729.998963 -240.249457 148.395386
-729.749506 -270.248420 183.332119
-699.750543 -269.998963 183.332119
        </DataArray>
      </Points>
      <Polys>
        <DataArray type="Int32" Name="connectivity" format="ascii" RangeMin="0" RangeMax="-1">
0 1 2 3
        </DataArray>
        <DataArray type="Int32" Name="offsets" format="ascii" RangeMin="4" RangeMax="4">
          4
        </DataArray>
      </Polys>
      <CellData Scalar="geometry">
        <DataArray type="Float32" Name="strike" NumberOfComponents="1" format="ascii">
-179.523567
        </DataArray>
        <DataArray type="Float32" Name="dip" NumberOfComponents="1" format="ascii">
49.347477
        </DataArray>
        <DataArray type="Float32" Name="unit slip" NumberOfComponents="3" format="ascii">
-0.999965 -0.008315 -0.000000
        </DataArray>
      </CellData>
    </Piece>
    <Piece NumberOfPoints="4" NumberOfPolys="1">
      <Points>
        <DataArray type="Float32" Name="Fault Patch" NumberOfComponents="3" format="ascii">
-670.000000 -240.000000 138.217957
-699.990804 -240.742758 138.217957
-699.248045 -270.733562 171.919551
-669.257242 -269.990804 171.919551
        </DataArray>
      </Points>
      <Polys>
        <DataArray type="Int32" Name="connectivity" format="ascii" RangeMin="0" RangeMax="-1">
0 1 2 3
        </DataArray>
        <DataArray type="Int32" Name="offsets" format="ascii" RangeMin="4" RangeMax="4">
          4
        </DataArray>
      </Polys>
      <CellData Scalar="geometry">
        <DataArray type="Float32" Name="strike" NumberOfComponents="1" format="ascii">
-178.581291
        </DataArray>
        <DataArray type="Float32" Name="dip" NumberOfComponents="1" format="ascii">
48.325623
        </DataArray>
        <DataArray type="Float32" Name="unit slip" NumberOfComponents="3" format="ascii">
-0.999693 -0.024759 -0.000000
        </DataArray>
      </CellData>
    </Piece>
    <Piece NumberOfPoints="4" NumberOfPolys="1">
      <Points>
        <DataArray type="Float32" Name="Fault Patch" NumberOfComponents="3" format="ascii">
-640.000000 -240.000000 130.597198
-669.969375 -241.355202 130.597198
-668.614172 -271.324577 162.872125
-638.644798 -269.969375 162.872125
        </DataArray>
      </Points>
      <Polys>
        <DataArray type="Int32" Name="connectivity" format="ascii" RangeMin="0" RangeMax="-1">
0 1 2 3
        </DataArray>
        <DataArray type="Int32" Name="offsets" format="ascii" RangeMin="4" RangeMax="4">
          4
        </DataArray>
      </Polys>
      <CellData Scalar="geometry">
        <DataArray type="Float32" Name="strike" NumberOfComponents="1" format="ascii">
-177.410873
        </DataArray>
        <DataArray type="Float32" Name="dip" NumberOfComponents="1" format="ascii">
47.092106
        </DataArray>
        <DataArray type="Float32" Name="unit slip" NumberOfComponents="3" format="ascii">
-0.998979 -0.045173 -0.000000
        </DataArray>
      </CellData>
    </Piece>
    <Piece NumberOfPoints="4" NumberOfPolys="1">
      <Points>
        <DataArray type="Float32" Name="Fault Patch" NumberOfComponents="3" format="ascii">
-610.000000 -240.000000 127.330894
-639.928239 -242.073773 127.330894
-637.854465 -272.002012 157.318673
-607.926227 -269.928239 157.318673
        </DataArray>
      </Points>
      <Polys>
        <DataArray type="Int32" Name="connectivity" format="ascii" RangeMin="0" RangeMax="-1">
0 1 2 3
        </DataArray>
        <DataArray type="Int32" Name="offsets" format="ascii" RangeMin="4" RangeMax="4">
          4
        </DataArray>
      </Polys>
      <CellData Scalar="geometry">
        <DataArray type="Float32" Name="strike" NumberOfComponents="1" format="ascii">
-176.036224
        </DataArray>
        <DataArray type="Float32" Name="dip" NumberOfComponents="1" format="ascii">
44.988327
        </DataArray>
        <DataArray type="Float32" Name="unit slip" NumberOfComponents="3" format="ascii">
-0.997608 -0.069126 -0.000000
        </DataArray>
      </CellData>
    </Piece>
    <Piece NumberOfPoints="4" NumberOfPolys="1">
      <Points>
        <DataArray type="Float32" Name="Fault Patch" NumberOfComponents="3" format="ascii">
-580.000000 -240.000000 128.220978
-609.872721 -242.760531 128.220978
-607.112190 -272.633252 156.499365
-577.239469 -269.872721 156.499365
        </DataArray>
      </Points>
      <Polys>
        <DataArray type="Int32" Name="connectivity" format="ascii" RangeMin="0" RangeMax="-1">
0 1 2 3
        </DataArray>