<?xml version="1.0"?>
<VTKFile type="PolyData" version="0.1">
  <PolyData>
    <Piece NumberOfPoints="4" NumberOfPolys="1">
      <Points>
        <DataArray type="Float32" Name="Fault Patch" NumberOfComponents="3" format="ascii">
-212.132034 -367.423461 149.965755
-241.561693 -373.245417 149.965755
-235.739737 -402.675076 165.615322
-206.310078 -396.853119 165.615322
        </DataArray>
      </Points>
      <Polys>
        <DataArray type="Int32" Name="connectivity" format="ascii" RangeMin="0" RangeMax="-1">
0 1 2 3
        </DataArray>
        <DataArray type="Int32" Name="offsets" format="ascii" RangeMin="4" RangeMax="4">
          4
        </DataArray>
      </Polys>
      <CellData Scalar="geometry">
        <DataArray type="Float32" Name="strike" NumberOfComponents="1" format="ascii">
-168.809879
        </DataArray>
        <DataArray type="Float32" Name="dip" NumberOfComponents="1" format="ascii">
27.548899
        </DataArray>
        <DataArray type="Float32" Name="unit slip" NumberOfComponents="3" format="ascii">
-0.980989 -0.194065 -0.000000
        </DataArray>
      </CellData>
    </Piece>
    <Piece NumberOfPoints="4" NumberOfPolys="1">
      <Points>
        <DataArray type="Float32" Name="Fault Patch" NumberOfComponents="3" format="ascii">
-183.154260 -359.658890 150.338034
-210.673156 -371.605035 150.338034
-198.727011 -399.123931 166.084054
-171.208115 -387.177785 166.084054
        </DataArray>
      </Points>
      <Polys>
        <DataArray type="Int32" Name="connectivity" format="ascii" RangeMin="0" RangeMax="-1">
0 1 2 3
        </DataArray>
        <DataArray type="Int32" Name="offsets" format="ascii" RangeMin="4" RangeMax="4">
          4
        </DataArray>
      </Polys>
      <CellData Scalar="geometry">
        <DataArray type="Float32" Name="strike" NumberOfComponents="1" format="ascii">
-156.533998
        </DataArray>
        <DataArray type="Float32" Name="dip" NumberOfComponents="1" format="ascii">
27.693514
        </DataArray>
        <DataArray type="Float32" Name="unit slip" NumberOfComponents="3" format="ascii">
-0.917297 -0.398205 -0.000000
        </DataArray>
      </CellData>
    </Piece>
    <Piece NumberOfPoints="4" NumberOfPolys="1">
      <Points>
        <DataArray type="Float32" Name="Fault Patch" NumberOfComponents="3" format="ascii">
-154.176485 -351.894319 152.569233
-178.703435 -369.169408 152.569233
-161.428346 -393.696359 168.313019
-136.901396 -376.421269 168.313019
        </DataArray>
      </Points>
      <Polys>
        <DataArray type="Int32" Name="connectivity" format="ascii" RangeMin="0" RangeMax="-1">
0 1 2 3
        </DataArray>
        <DataArray type="Int32" Name="offsets" format="ascii" RangeMin="4" RangeMax="4">
          4
        </DataArray>
      </Polys>
      <CellData Scalar="geometry">
        <DataArray type="Float32" Name="strike" NumberOfComponents="1" format="ascii">
-144.841779
        </DataArray>
        <DataArray type="Float32" Name="dip" NumberOfComponents="1" format="ascii">
27.690169
        </DataArray>
        <DataArray type="Float32" Name="unit slip" NumberOfComponents="3" format="ascii">
-0.817565 -0.575836 0.000000
        </DataArray>
      </CellData>
    </Piece>
    <Piece NumberOfPoints="4" NumberOfPolys="1">
      <Points>
        <DataArray type="Float32" Name="Fault Patch" NumberOfComponents="3" format="ascii">
-125.198710 -344.129747 158.826258
-150.575045 -360.131047 158.826258
-134.573745 -385.507383 174.815173
-109.197410 -369.506083 174.815173
        </DataArray>
      </Points>
      <Polys>
        <DataArray type="Int32" Name="connectivity" format="ascii" RangeMin="0" RangeMax="-1">
0 1 2 3
        </DataArray>
        <DataArray type="Int32" Name="offsets" format="ascii" RangeMin="4" RangeMax="4">
          4
        </DataArray>
      </Polys>
      <CellData Scalar="geometry">
        <DataArray type="Float32" Name="strike" NumberOfComponents="1" format="ascii">
-147.766112
        </DataArray>
        <DataArray type="Float32" Name="dip" NumberOfComponents="1" format="ascii">
28.056001
        </DataArray>
        <DataArray type="Float32" Name="unit slip" NumberOfComponents="3" format="ascii">
-0.845878 -0.533377 -0.000000
        </DataArray>
      </CellData>
    </Piece>
    <Piece NumberOfPoints="4" NumberOfPolys="1">
      <Points>
        <DataArray type="Float32" Name="Fault Patch" NumberOfComponents="3" format="ascii">
-96.220935 -336.365176 166.414509
-125.000621 -344.834513 166.414509
-116.531285 -373.614198 182.752076
-87.751599 -365.144862 182.752076
        </DataArray>
      </Points>
      <Polys>
        <DataArray type="Int32" Name="connectivity" format="ascii" RangeMin="0" RangeMax="-1">
0 1 2 3
        </DataArray>
        <DataArray type="Int32" Name="offsets" format="ascii" RangeMin="4" RangeMax="4">
          4
        </DataArray>
      </Polys>
      <CellData Scalar="geometry">
        <DataArray type="Float32" Name="strike" NumberOfComponents="1" format="ascii">
-163.601806
        </DataArray>
        <DataArray type="Float32" Name="dip" NumberOfComponents="1" format="ascii">
28.572073
        </DataArray>
        <DataArray type="Float32" Name="unit slip" NumberOfComponents="3" format="ascii">
-0.959323 -0.282311 -0.000000
        </DataArray>
      </CellData>
    </Piece>
    <Piece NumberOfPoints="4" NumberOfPolys="1">
      <Points>
        <DataArray type="Float32" Name="Fault Patch" NumberOfComponents="3" format="ascii">
-67.243160 -328.600605 162.985977
-97.242352 -328.820777 162.985977
-97.022180 -358.819969 179.094185
-67.022988 -358.599797 179.094185
        </DataArray>
      </Points>
      <Polys>
        <DataArray type="Int32" Name="connectivity" format="ascii" RangeMin="0" RangeMax="-1">
0 1 2 3
        </DataArray>
        <DataArray type="Int32" Name="offsets" format="ascii" RangeMin="4" RangeMax="4">
          4
        </DataArray>
      </Polys>
      <CellData Scalar="geometry">
        <DataArray type="Float32" Name="strike" NumberOfComponents="1" format="ascii">
-179.579499
        </DataArray>
        <DataArray type="Float32" Name="dip" NumberOfComponents="1" format="ascii">
28.233142
        </DataArray>
        <DataArray type="Float32" Name="unit slip" NumberOfComponents="3" format="ascii">
-0.999973 -0.007339 0.000000
        </DataArray>
      </CellData>
    </Piece>
    <Piece NumberOfPoints="4" NumberOfPolys="1">
      <Points>
        <DataArray type="Float32" Name="Fault Patch" NumberOfComponents="3" format="ascii">
-38.265386 -320.836033 155.394006
-67.751037 -315.304634 155.394006
-73.282436 -344.790286 170.916769
-43.796785 -350.321684 170.916769
        </DataArray>
      </Points>
      <Polys>
        <DataArray type="Int32" Name="connectivity" format="ascii" RangeMin="0" RangeMax="-1">
0 1 2 3
        </DataArray>
        <DataArray type="Int32" Name="offsets" format="ascii" RangeMin="4" RangeMax="4">
          4
        </DataArray>
      </Polys>
      <CellData Scalar="geometry">
        <DataArray type="Float32" Name="strike" NumberOfComponents="1" format="ascii">
169.375015
        </DataArray>
        <DataArray type="Float32" Name="dip" NumberOfComponents="1" format="ascii">
27.358195
        </DataArray>
        <DataArray type="Float32" Name="unit slip" NumberOfComponents="3" format="ascii">
-0.982855 0.184380 0.000000
        </DataArray>
      </CellData>
    </Piece>
    <Piece NumberOfPoints="4" NumberOfPolys="1">
      <Points>
        <DataArray type="Float32" Name="Fault Patch" NumberOfComponents="3" format="ascii">
-9.287611 -313.071462 148.739603
-39.210771 -310.925648 148.739603
-41.356584 -340.848808 163.544255
-11.433425 -342.994622 163.544255
        </DataArray>
      </Points>
      <Polys>
        <DataArray type="Int32" Name="connectivity" format="ascii" RangeMin="0" RangeMax="-1">
0 1 2 3
        </DataArray>
        <DataArray type="Int32" Name="offsets" format="ascii" RangeMin="4" RangeMax="4">
          4
        </DataArray>
      </Polys>
      <CellData Scalar="geometry">
        <DataArray type="Float32" Name="strike" NumberOfComponents="1" format="ascii">
175.898295
        </DataArray>
        <DataArray type="Float32" Name="dip" NumberOfComponents="1" format="ascii">
26.265805
        </DataArray>
        <DataArray type="Float32" Name="unit slip" NumberOfComponents="3" format="ascii">
-0.997439 0.071527 -0.000000
        </DataArray>
      </CellData>
    </Piece>
    <Piece NumberOfPoints="4" NumberOfPolys="1">
      <Points>
        <DataArray type="Float32" Name="Fault Patch" NumberOfComponents="3" format="ascii">
19.690164 -305.306891 143.852576
-9.880268 -310.365502 143.852576
-4.821657 -339.935934 158.069900
24.748775 -334.877323 158.069900
        </DataArray>
      </Points>
      <Polys>
        <DataArray type="Int32" Name="connectivity" format="ascii" RangeMin="0" RangeMax="-1">
0 1 2 3
        </DataArray>
        <DataArray type="Int32" Name="offsets" format="ascii" RangeMin="4" RangeMax="4">
          4
        </DataArray>
      </Polys>
      <CellData Scalar="geometry">
        <DataArray type="Float32" Name="strike" NumberOfComponents="1" format="ascii">
-170.292386
        </DataArray>
        <DataArray type="Float32" Name="dip" NumberOfComponents="1" format="ascii">
25.356779
        </DataArray>
        <DataArray type="Float32" Name="unit slip" NumberOfComponents="3" format="ascii">
-0.985681 -0.168620 -0.000000
        </DataArray>
      </CellData>
    </Piece>
    <Piece NumberOfPoints="4" NumberOfPolys="1">
      <Points>
        <DataArray type="Float32" Name="Fault Patch" NumberOfComponents="3" format="ascii">
48.667939 -297.542319 146.069910
20.836288 -308.740497 146.069910
32.034466 -336.572149 160.385064
59.866117 -325.373970 160.385064
        </DataArray>
      </Points>
      <Polys>
        <DataArray type="Int32" Name="connectivity" format="ascii" RangeMin="0" RangeMax="-1">
0 1 2 3
        </DataArray>
        <DataArray type="Int32" Name="offsets" format="ascii" RangeMin="4" RangeMax="4">
          4
        </DataArray>
      </Polys>
      <CellData Scalar="geometry">
        <DataArray type="Float32" Name="strike" NumberOfComponents="1" format="ascii">
-158.082410
        </DataArray>
        <DataArray type="Float32" Name="dip" NumberOfComponents="1" format="ascii">
25.509161
        </DataArray>
        <DataArray type="Float32" Name="unit slip" NumberOfComponents="3" format="ascii">
-0.927722 -0.373273 -0.000000
        </DataArray>
      </CellData>
    </Piece>
    <Piece NumberOfPoints="4" NumberOfPolys="1">
      <Points>
        <DataArray type="Float32" Name="Fault Patch" NumberOfComponents="3" format="ascii">
77.645714 -289.777748 149.612679
51.359884 -304.236488 149.612679
65.818624 -330.522317 164.242387
92.104454 -316.063577 164.242387
        </DataArray>
      </Points>
      <Polys>
        <DataArray type="Int32" Name="connectivity" format="ascii" RangeMin="0" RangeMax="-1">
0 1 2 3
        </DataArray>
        <DataArray type="Int32" Name="offsets" format="ascii" RangeMin="4" RangeMax="4">
          4
        </DataArray>
      </Polys>
      <CellData Scalar="geometry">
        <DataArray type="Float32" Name="strike" NumberOfComponents="1" format="ascii">
-151.186640
        </DataArray>
        <DataArray type="Float32" Name="dip" NumberOfComponents="1" format="ascii">
25.996498
        </DataArray>
        <DataArray type="Float32" Name="unit slip" NumberOfComponents="3" format="ascii">
-0.876194 -0.481958 -0.000000
        </DataArray>
      </CellData>
    </Piece>
    <Piece NumberOfPoints="4" NumberOfPolys="1">
      <Points>
        <DataArray type="Float32" Name="Fault Patch" NumberOfComponents="3" format="ascii">
106.623488 -282.013177 153.774698
79.611875 -295.065869 153.774698
92.664566 -322.077481 168.695318
119.676179 -309.024790 168.695318
        </DataArray>
      </Points>
      <Polys>
        <DataArray type="Int32" Name="connectivity" format="ascii" RangeMin="0" RangeMax="-1">
0 1 2 3
        </DataArray>
        <DataArray type="Int32" Name="offsets" format="ascii" RangeMin="4" RangeMax="4">
          4
        </DataArray>
      </Polys>
      <CellData Scalar="geometry">
        <DataArray type="Float32" Name="strike" NumberOfComponents="1" format="ascii">
-154.208997
        </DataArray>
        <DataArray type="Float32" Name="dip" NumberOfComponents="1" format="ascii">
26.443640
        </DataArray>
        <DataArray type="Float32" Name="unit slip" NumberOfComponents="3" format="ascii">
-0.900387 -0.435090 -0.000000
        </DataArray>
      </CellData>
    </Piece>
    <Piece NumberOfPoints="4" NumberOfPolys="1">
      <Points>
        <DataArray type="Float32" Name="Fault Patch" NumberOfComponents="3" format="ascii">
135.601263 -274.248605 155.815286
107.512392 -284.784985 155.815286
118.048771 -312.873856 170.954987
146.137643 -302.337476 170.954987
        </DataArray>
      </Points>
      <Polys>
        <DataArray type="Int32" Name="connectivity" format="ascii" RangeMin="0" RangeMax="-1">
0 1 2 3
        </DataArray>
        <DataArray type="Int32" Name="offsets" format="ascii" RangeMin="4" RangeMax="4">
          4
        </DataArray>
      </Polys>
      <CellData Scalar="geometry">
        <DataArray type="Float32" Name="strike" NumberOfComponents="1" format="ascii">
-159.438495
        </DataArray>
        <DataArray type="Float32" Name="dip" NumberOfComponents="1" format="ascii">
26.778101
        </DataArray>
        <DataArray type="Float32" Name="unit slip" NumberOfComponents="3" format="ascii">
-0.936296 -0.351213 -0.000000
        </DataArray>
      </CellData>
    </Piece>
    <Piece NumberOfPoints="4" NumberOfPolys="1">
      <Points>
        <DataArray type="Float32" Name="Fault Patch" NumberOfComponents="3" format="ascii">
164.579038 -266.484034 157.143051
135.712991 -274.654183 157.143051
143.883139 -303.520229 172.434836
172.749186 -295.350081 172.434836
        </DataArray>
      </Points>
      <Polys>
        <DataArray type="Int32" Name="connectivity" format="ascii" RangeMin="0" RangeMax="-1">
0 1 2 3
        </DataArray>
        <DataArray type="Int32" Name="offsets" format="ascii" RangeMin="4" RangeMax="4">
          4
        </DataArray>
      </Polys>
      <CellData Scalar="geometry">
        <DataArray type="Float32" Name="strike" NumberOfComponents="1" format="ascii">
-164.196544
        </DataArray>
        <DataArray type="Float32" Name="dip" NumberOfComponents="1" format="ascii">
27.009130
        </DataArray>
        <DataArray type="Float32" Name="unit slip" NumberOfComponents="3" format="ascii">
-0.962202 -0.272338 -0.000000
        </DataArray>
      </CellData>
    </Piece>
    <Piece NumberOfPoints="4" NumberOfPolys="1">
      <Points>
        <DataArray type="Float32" Name="Fault Patch" NumberOfComponents="3" format="ascii">
193.556813 -258.719462 156.409650
164.222262 -265.003099 156.409650
170.505898 -294.337650 171.740500
199.840450 -288.054014 171.740500
        </DataArray>
      </Points>
      <Polys>
        <DataArray type="Int32" Name="connectivity" format="ascii" RangeMin="0" RangeMax="-1">
0 1 2 3
        </DataArray>
        <DataArray type="Int32" Name="offsets" format="ascii" RangeMin="4" RangeMax="4">
          4
        </DataArray>
      </Polys>
      <CellData Scalar="geometry">
        <DataArray type="Float32" Name="strike" NumberOfComponents="1" format="ascii">
-167.909610
        </DataArray>
        <DataArray type="Float32" Name="dip" NumberOfComponents="1" format="ascii">
27.068319
        </DataArray>
        <DataArray type="Float32" Name="unit slip" NumberOfComponents="3" format="ascii">
-0.977818 -0.209455 -0.000000
        </DataArray>
      </CellData>
    </Piece>
    <Piece NumberOfPoints="4" NumberOfPolys="1">
      <Points>
        <DataArray type="Float32" Name="Fault Patch" NumberOfComponents="3" format="ascii">
222.534587 -250.954891 155.567245
192.979593 -256.102930 155.567245
198.127632 -285.657925 170.901125
227.682626 -280.509886 170.901125
        </DataArray>
      </Points>
      <Polys>
        <DataArray type="Int32" Name="connectivity" format="ascii" RangeMin="0" RangeMax="-1">
0 1 2 3
        </DataArray>
        <DataArray type="Int32" Name="offsets" format="ascii" RangeMin="4" RangeMax="4">
          4
        </DataArray>
      </Polys>
      <CellData Scalar="geometry">
        <DataArray type="Float32" Name="strike" NumberOfComponents="1" format="ascii">
-170.119065
        </DataArray>
        <DataArray type="Float32" Name="dip" NumberOfComponents="1" format="ascii">
27.072908
        </DataArray>
        <DataArray type="Float32" Name="unit slip" NumberOfComponents="3" format="ascii">
-0.985166 -0.171601 -0.000000
        </DataArray>
      </CellData>
    </Piece>
    <Piece NumberOfPoints="4" NumberOfPolys="1">
      <Points>
        <DataArray type="Float32" Name="Fault Patch" NumberOfComponents="3" format="ascii">
251.512362 -243.190320 153.779264
221.960444 -248.355989 153.779264
227.126112 -277.907907 169.086047
256.678031 -272.742238 169.086047
        </DataArray>
      </Points>
      <Polys>
        <DataArray type="Int32" Name="connectivity" format="ascii" RangeMin="0" RangeMax="-1">
0 1 2 3
        </DataArray>
        <DataArray type="Int32" Name="offsets" format="ascii" RangeMin="4" RangeMax="4">
          4
        </DataArray>
      </Polys>
      <CellData Scalar="geometry">
        <DataArray type="Float32" Name="strike" NumberOfComponents="1" format="ascii">
-170.084886
        </DataArray>
        <DataArray type="Float32" Name="dip" NumberOfComponents="1" format="ascii">
27.031862
        </DataArray>
        <DataArray type="Float32" Name="unit slip" NumberOfComponents="3" format="ascii">
-0.985064 -0.172189 -0.000000
        </DataArray>
      </CellData>
    </Piece>
    <Piece NumberOfPoints="4" NumberOfPolys="1">
      <Points>
        <DataArray type="Float32" Name="Fault Patch" NumberOfComponents="3" format="ascii">
280.490137 -235.425748 153.040823
251.239906 -242.090879 153.040823
257.905036 -271.341110 168.351523
287.155268 -264.675979 168.351523
        </DataArray>
      </Points>
      <Polys>
        <DataArray type="Int32" Name="connectivity" format="ascii" RangeMin="0" RangeMax="-1">
0 1 2 3
        </DataArray>
        <DataArray type="Int32" Name="offsets" format="ascii" RangeMin="4" RangeMax="4">
          4
        </DataArray>
      </Polys>
      <CellData Scalar="geometry">
        <DataArray type="Float32" Name="strike" NumberOfComponents="1" format="ascii">
-167.163420
        </DataArray>
        <DataArray type="Float32" Name="dip" NumberOfComponents="1" format="ascii">
27.037797
        </DataArray>
        <DataArray type="Float32" Name="unit slip" NumberOfComponents="3" format="ascii">
-0.975008 -0.222171 -0.000000
        </DataArray>
      </CellData>
    </Piece>
    <Piece NumberOfPoints="4" NumberOfPolys="1">
      <Points>
        <DataArray type="Float32" Name="Fault Patch" NumberOfComponents="3" format="ascii">
309.467912 -227.661177 152.942610
280.040811 -233.496049 152.942610
285.875684 -262.923150 168.137663
315.302784 -257.088278 168.137663
        </DataArray>
      </Points>
      <Polys>
        <DataArray type="Int32" Name="connectivity" format="ascii" RangeMin="0" RangeMax="-1">
0 1 2 3
        </DataArray>
        <DataArray type="Int32" Name="offsets" format="ascii" RangeMin="4" RangeMax="4">
          4
        </DataArray>
      </Polys>
      <CellData Scalar="geometry">
        <DataArray type="Float32" Name="strike" NumberOfComponents="1" format="ascii">
-168.784732
        </DataArray>
        <DataArray type="Float32" Name="dip" NumberOfComponents="1" format="ascii">
26.862295
        </DataArray>
        <DataArray type="Float32" Name="unit slip" NumberOfComponents="3" format="ascii">
-0.980903 -0.194496 -0.000000
        </DataArray>
      </CellData>
    </Piece>
    <Piece NumberOfPoints="4" NumberOfPolys="1">
      <Points>
        <DataArray type="Float32" Name="Fault Patch" NumberOfComponents="3" format="ascii">
338.445687 -219.896606 152.427446
308.479408 -221.318630 152.427446
309.901433 -251.284909 167.337565
339.867711 -249.862885 167.337565
        </DataArray>
      </Points>
      <Polys>
        <DataArray type="Int32" Name="connectivity" format="ascii" RangeMin="0" RangeMax="-1">
0 1 2 3
        </DataArray>
        <DataArray type="Int32" Name="offsets" format="ascii" RangeMin="4" RangeMax="4">
          4
        </DataArray>
      </Polys>
      <CellData Scalar="geometry">
        <DataArray type="Float32" Name="strike" NumberOfComponents="1" format="ascii">
-177.283116
        </DataArray>
        <DataArray type="Float32" Name="dip" NumberOfComponents="1" format="ascii">
26.427558
        </DataArray>
        <DataArray type="Float32" Name="unit slip" NumberOfComponents="3" format="ascii">
-0.998876 -0.047401 -0.000000
        </DataArray>
      </CellData>
    </Piece>
    <Piece NumberOfPoints="4" NumberOfPolys="1">
      <Points>
        <DataArray type="Float32" Name="Fault Patch" NumberOfComponents="3" format="ascii">
367.423461 -212.132034 148.687453
337.516828 -209.767017 148.687453
335.151811 -239.673651 163.179989
365.058444 -242.038667 163.179989
        </DataArray>
      </Points>
      <Polys>
        <DataArray type="Int32" Name="connectivity" format="ascii" RangeMin="0" RangeMax="-1">
0 1 2 3
        </DataArray>
        <DataArray type="Int32" Name="offsets" format="ascii" RangeMin="4" RangeMax="4">
          4
        </DataArray>
      </Polys>
      <CellData Scalar="geometry">
        <DataArray type="Float32" Name="strike" NumberOfComponents="1" format="ascii">
175.478459
        </DataArray>
        <DataArray type="Float32" Name="dip" NumberOfComponents="1" format="ascii">
25.784469
        </DataArray>
        <DataArray type="Float32" Name="unit slip" NumberOfComponents="3" format="ascii">
-0.996888 0.078834 0.000000
        </DataArray>
      </CellData>
    </Piece>
    <Piece NumberOfPoints="4" NumberOfPolys="1">
      <Points>
        <DataArray type="Float32" Name="Fault Patch" NumberOfComponents="3" format="ascii">
396.401236 -204.367463 141.209033
366.724403 -199.975924 141.209033
362.332865 -229.652757 155.056801
392.009697 -234.044296 155.056801
        </DataArray>
      </Points>
      <Polys>
        <DataArray type="Int32" Name="connectivity" format="ascii" RangeMin="0" RangeMax="-1">
0 1 2 3
        </DataArray>
        <DataArray type="Int32" Name="offsets" format="ascii" RangeMin="4" RangeMax="4">
          4
        </DataArray>
      </Polys>
      <CellData Scalar="geometry">
        <DataArray type="Float32" Name="strike" NumberOfComponents="1" format="ascii">
171.582532
        </DataArray>
        <DataArray type="Float32" Name="dip" NumberOfComponents="1" format="ascii">
24.777681
        </DataArray>
        <DataArray type="Float32" Name="unit slip" NumberOfComponents="3" format="ascii">
-0.989228 0.146385 -0.000000
        </DataArray>
      </CellData>
    </Piece>
    <Piece NumberOfPoints="4" NumberOfPolys="1">
      <Points>
        <DataArray type="Float32" Name="Fault Patch" NumberOfComponents="3" format="ascii">
425.379011 -196.602892 137.337969
395.417568 -198.123395 137.337969
396.938071 -228.084839 150.814064
426.899514 -226.564335 150.814064
        </DataArray>
      </Points>
      <Polys>
        <DataArray type="Int32" Name="connectivity" format="ascii" RangeMin="0" RangeMax="-1">
0 1 2 3
        </DataArray>
        <DataArray type="Int32" Name="offsets" format="ascii" RangeMin="4" RangeMax="4">
          4
        </DataArray>
      </Polys>
      <CellData Scalar="geometry">
        <DataArray type="Float32" Name="strike" NumberOfComponents="1" format="ascii">
-177.094808
        </DataArray>
        <DataArray type="Float32" Name="dip" NumberOfComponents="1" format="ascii">
24.189767
        </DataArray>
        <DataArray type="Float32" Name="unit slip" NumberOfComponents="3" format="ascii">
-0.998715 -0.050683 -0.000000
        </DataArray>
      </CellData>
    </Piece>
    <Piece NumberOfPoints="4" NumberOfPolys="1">
      <Points>
        <DataArray type="Float32" Name="Fault Patch" NumberOfComponents="3" format="ascii">
454.356786 -188.838320 137.103775
428.025286 -203.213720 137.103775
442.400686 -229.545219 150.522446
468.732186 -215.169819 150.522446
        </DataArray>
      </Points>
      <Polys>
        <DataArray type="Int32" Name="connectivity" format="ascii" RangeMin="0" RangeMax="-1">
0 1 2 3
        </DataArray>
        <DataArray type="Int32" Name="offsets" format="ascii" RangeMin="4" RangeMax="4">
          4
        </DataArray>
      </Polys>
      <CellData Scalar="geometry">
        <DataArray type="Float32" Name="strike" NumberOfComponents="1" format="ascii">
-151.368140
        </DataArray>
        <DataArray type="Float32" Name="dip" NumberOfComponents="1" format="ascii">
24.098445
        </DataArray>
        <DataArray type="Float32" Name="unit slip" NumberOfComponents="3" format="ascii">
-0.877717 -0.479180 0.000000
        </DataArray>
      </CellData>
    </Piece>
    <Piece NumberOfPoints="4" NumberOfPolys="1">
      <Points>
        <DataArray type="Float32" Name="Fault Patch" NumberOfComponents="3" format="ascii">
483.334561 -181.073749 142.371744
460.895888 -200.986206 142.371744
480.808344 -223.424879 156.139206
503.247018 -203.512422 156.139206
        </DataArray>
      </Points>
      <Polys>
        <DataArray type="Int32" Name="connectivity" format="ascii" RangeMin="0" RangeMax="-1">
0 1 2 3
        </DataArray>
        <DataArray type="Int32" Name="offsets" format="ascii" RangeMin="4" RangeMax="4">
          4
        </DataArray>
      </Polys>
      <CellData Scalar="geometry">
        <DataArray type="Float32" Name="strike" NumberOfComponents="1" format="ascii">
-138.413610
        </DataArray>
        <DataArray type="Float32" Name="dip" NumberOfComponents="1" format="ascii">
24.651119
        </DataArray>
        <DataArray type="Float32" Name="unit slip" NumberOfComponents="3" format="ascii">
-0.747956 -0.663749 -0.000000
        </DataArray>
      </CellData>
    </Piece>
    <Piece NumberOfPoints="4" NumberOfPolys="1">
      <Points>
        <DataArray type="Float32" Name="Fault Patch" NumberOfComponents="3" format="ascii">
512.312335 -173.309178 150.680245
489.767078 -193.100878 150.680245
509.558779 -215.646135 165.090364
532.104035 -195.854434 165.090364
        </DataArray>
      </Points>
      <Polys>
        <DataArray type="Int32" Name="connectivity" format="ascii" RangeMin="0" RangeMax="-1">
0 1 2 3
        </DataArray>
        <DataArray type="Int32" Name="offsets" format="ascii" RangeMin="4" RangeMax="4">
          4
        </DataArray>
      </Polys>
      <CellData Scalar="geometry">
        <DataArray type="Float32" Name="strike" NumberOfComponents="1" format="ascii">
-138.721223
        </DataArray>
        <DataArray type="Float32" Name="dip" NumberOfComponents="1" format="ascii">
25.656711
        </DataArray>
        <DataArray type="Float32" Name="unit slip" NumberOfComponents="3" format="ascii">
-0.751509 -0.659723 -0.000000
        </DataArray>
      </CellData>
    </Piece>
    <Piece NumberOfPoints="4" NumberOfPolys="1">
      <Points>
        <DataArray type="Float32" Name="Fault Patch" NumberOfComponents="3" format="ascii">
541.290110 -165.544606 156.012193
517.259874 -183.504220 156.012193
535.219488 -207.534456 170.886532
559.249724 -189.574842 170.886532
        </DataArray>
      </Points>
      <Polys>
        <DataArray type="Int32" Name="connectivity" format="ascii" RangeMin="0" RangeMax="-1">
0 1 2 3
        </DataArray>
        <DataArray type="Int32" Name="offsets" format="ascii" RangeMin="4" RangeMax="4">
          4
        </DataArray>
      </Polys>
      <CellData Scalar="geometry">
        <DataArray type="Float32" Name="strike" NumberOfComponents="1" format="ascii">
-143.226456
        </DataArray>
        <DataArray type="Float32" Name="dip" NumberOfComponents="1" format="ascii">
26.372734
        </DataArray>
        <DataArray type="Float32" Name="unit slip" NumberOfComponents="3" format="ascii">
-0.801008 -0.598654 -0.000000
        </DataArray>
      </CellData>
    </Piece>
    <Piece NumberOfPoints="4" NumberOfPolys="1">
      <Points>
        <DataArray type="Float32" Name="Fault Patch" NumberOfComponents="3" format="ascii">
570.267885 -157.780035 161.209914
545.781119 -175.112037 161.209914
563.113121 -199.598803 176.375504
587.599887 -182.266801 176.375504
        </DataArray>
      </Points>
      <Polys>
        <DataArray type="Int32" Name="connectivity" format="ascii" RangeMin="0" RangeMax="-1">
0 1 2 3
        </DataArray>
        <DataArray type="Int32" Name="offsets" format="ascii" RangeMin="4" RangeMax="4">
          4
        </DataArray>
      </Polys>
      <CellData Scalar="geometry">
        <DataArray type="Float32" Name="strike" NumberOfComponents="1" format="ascii">
-144.708720
        </DataArray>
        <DataArray type="Float32" Name="dip" NumberOfComponents="1" format="ascii">
26.817495
        </DataArray>
        <DataArray type="Float32" Name="unit slip" NumberOfComponents="3" format="ascii">
-0.816226 -0.577733 -0.000000
        </DataArray>
      </CellData>
    </Piece>
    <Piece NumberOfPoints="4" NumberOfPolys="1">
      <Points>
        <DataArray type="Float32" Name="Fault Patch" NumberOfComponents="3" format="ascii">
599.245660 -150.015464 165.800028
579.103323 -172.248014 165.800028
601.335873 -192.390351 180.903926
621.478210 -170.157801 180.903926
        </DataArray>
      </Points>
      <Polys>
        <DataArray type="Int32" Name="connectivity" format="ascii" RangeMin="0" RangeMax="-1">
0 1 2 3
        </DataArray>
        <DataArray type="Int32" Name="offsets" format="ascii" RangeMin="4" RangeMax="4">
          4
        </DataArray>
      </Polys>
      <CellData Scalar="geometry">