<?xml version="1.0"?>
<VTKFile type="PolyData" version="0.1">
  <PolyData>
    <Piece NumberOfPoints="4" NumberOfPolys="1">
      <Points>
        <DataArray type="Float32" Name="Fault Patch" NumberOfComponents="3" format="ascii">
-442.102355 -994.256258 119.278958
-468.411774 -1008.672030 119.278958
-453.996001 -1034.981449 152.366304
-427.686582 -1020.565677 152.366304
        </DataArray>
      </Points>
      <Polys>
        <DataArray type="Int32" Name="connectivity" format="ascii" RangeMin="0" RangeMax="-1">
0 1 2 3
        </DataArray>
        <DataArray type="Int32" Name="offsets" format="ascii" RangeMin="4" RangeMax="4">
          4
        </DataArray>
      </Polys>
      <CellData Scalar="geometry">
        <DataArray type="Float32" Name="strike" NumberOfComponents="1" format="ascii">
-151.280255
        </DataArray>
        <DataArray type="Float32" Name="dip" NumberOfComponents="1" format="ascii">
47.801685
        </DataArray>
        <DataArray type="Float32" Name="unit slip" NumberOfComponents="3" format="ascii">
-0.876981 -0.480526 -0.000000
        </DataArray>
      </CellData>
    </Piece>
    <Piece NumberOfPoints="4" NumberOfPolys="1">
      <Points>
        <DataArray type="Float32" Name="Fault Patch" NumberOfComponents="3" format="ascii">
-561.025404 -1028.275496 97.160938
-590.137907 -1035.518572 97.160938
-582.894831 -1064.631075 139.335981
-553.782328 -1057.387999 139.335981
        </DataArray>
      </Points>
      <Polys>
        <DataArray type="Int32" Name="connectivity" format="ascii" RangeMin="0" RangeMax="-1">
0 1 2 3
        </DataArray>
        <DataArray type="Int32" Name="offsets" format="ascii" RangeMin="4" RangeMax="4">
          4
        </DataArray>
      </Polys>
      <CellData Scalar="geometry">
        <DataArray type="Float32" Name="strike" NumberOfComponents="1" format="ascii">
-166.028698
        </DataArray>
        <DataArray type="Float32" Name="dip" NumberOfComponents="1" format="ascii">
54.574953
        </DataArray>
        <DataArray type="Float32" Name="unit slip" NumberOfComponents="3" format="ascii">
-0.970417 -0.241436 -0.000000
        </DataArray>
      </CellData>
    </Piece>
    <Piece NumberOfPoints="4" NumberOfPolys="1">
      <Points>
        <DataArray type="Float32" Name="Fault Patch" NumberOfComponents="3" format="ascii">
-535.044642 -1013.275496 88.876758
-563.489163 -1022.810130 88.876758
-553.954528 -1051.254651 123.285958
-525.510008 -1041.720017 123.285958
        </DataArray>
      </Points>
      <Polys>
        <DataArray type="Int32" Name="connectivity" format="ascii" RangeMin="0" RangeMax="-1">
0 1 2 3
        </DataArray>
        <DataArray type="Int32" Name="offsets" format="ascii" RangeMin="4" RangeMax="4">
          4
        </DataArray>
      </Polys>
      <CellData Scalar="geometry">
        <DataArray type="Float32" Name="strike" NumberOfComponents="1" format="ascii">
-161.468792
        </DataArray>
        <DataArray type="Float32" Name="dip" NumberOfComponents="1" format="ascii">
48.916134
        </DataArray>
        <DataArray type="Float32" Name="unit slip" NumberOfComponents="3" format="ascii">
-0.948151 -0.317821 -0.000000
        </DataArray>
      </CellData>
    </Piece>
    <Piece NumberOfPoints="4" NumberOfPolys="1">
      <Points>
        <DataArray type="Float32" Name="Fault Patch" NumberOfComponents="3" format="ascii">
-509.063880 -998.275496 88.173869
-536.370067 -1010.700155 88.173869
-523.945407 -1038.006342 117.974987
-496.639221 -1025.581683 117.974987
        </DataArray>
      </Points>
      <Polys>
        <DataArray type="Int32" Name="connectivity" format="ascii" RangeMin="0" RangeMax="-1">
0 1 2 3
        </DataArray>
        <DataArray type="Int32" Name="offsets" format="ascii" RangeMin="4" RangeMax="4">
          4
        </DataArray>
      </Polys>
      <CellData Scalar="geometry">
        <DataArray type="Float32" Name="strike" NumberOfComponents="1" format="ascii">
-155.533866
        </DataArray>
        <DataArray type="Float32" Name="dip" NumberOfComponents="1" format="ascii">
44.809451
        </DataArray>
        <DataArray type="Float32" Name="unit slip" NumberOfComponents="3" format="ascii">
-0.910206 -0.414155 -0.000000
        </DataArray>
      </CellData>
    </Piece>
    <Piece NumberOfPoints="4" NumberOfPolys="1">
      <Points>
        <DataArray type="Float32" Name="Fault Patch" NumberOfComponents="3" format="ascii">
-483.083117 -983.275496 90.255627
-509.182276 -998.068531 90.255627
-494.389241 -1024.167691 117.167117
-468.290082 -1009.374655 117.167117
        </DataArray>
      </Points>
      <Polys>
        <DataArray type="Int32" Name="connectivity" format="ascii" RangeMin="0" RangeMax="-1">
0 1 2 3
        </DataArray>
        <DataArray type="Int32" Name="offsets" format="ascii" RangeMin="4" RangeMax="4">
          4
        </DataArray>
      </Polys>
      <CellData Scalar="geometry">
        <DataArray type="Float32" Name="strike" NumberOfComponents="1" format="ascii">
-150.455383
        </DataArray>
        <DataArray type="Float32" Name="dip" NumberOfComponents="1" format="ascii">
41.893682
        </DataArray>
        <DataArray type="Float32" Name="unit slip" NumberOfComponents="3" format="ascii">
-0.869972 -0.493101 -0.000000
        </DataArray>
      </CellData>
    </Piece>
    <Piece NumberOfPoints="4" NumberOfPolys="1">
      <Points>
        <DataArray type="Float32" Name="Fault Patch" NumberOfComponents="3" format="ascii">
-457.102355 -968.275496 93.148730
-482.011459 -984.994842 93.148730
-465.292113 -1009.903946 118.366911
-440.383009 -993.184601 118.366911
        </DataArray>
      </Points>
      <Polys>
        <DataArray type="Int32" Name="connectivity" format="ascii" RangeMin="0" RangeMax="-1">
0 1 2 3
        </DataArray>
        <DataArray type="Int32" Name="offsets" format="ascii" RangeMin="4" RangeMax="4">
          4
        </DataArray>
      </Polys>
      <CellData Scalar="geometry">
        <DataArray type="Float32" Name="strike" NumberOfComponents="1" format="ascii">
-146.129925
        </DataArray>
        <DataArray type="Float32" Name="dip" NumberOfComponents="1" format="ascii">
40.050611
        </DataArray>
        <DataArray type="Float32" Name="unit slip" NumberOfComponents="3" format="ascii">
-0.830303 -0.557312 -0.000000
        </DataArray>
      </CellData>
    </Piece>
    <Piece NumberOfPoints="4" NumberOfPolys="1">
      <Points>
        <DataArray type="Float32" Name="Fault Patch" NumberOfComponents="3" format="ascii">
-431.121593 -953.275496 97.599691
-454.444343 -972.144765 97.599691
-435.575075 -995.467515 122.134286
-412.252324 -976.598246 122.134286
        </DataArray>
      </Points>
      <Polys>
        <DataArray type="Int32" Name="connectivity" format="ascii" RangeMin="0" RangeMax="-1">
0 1 2 3
        </DataArray>
        <DataArray type="Int32" Name="offsets" format="ascii" RangeMin="4" RangeMax="4">
          4
        </DataArray>
      </Polys>
      <CellData Scalar="geometry">
        <DataArray type="Float32" Name="strike" NumberOfComponents="1" format="ascii">
-141.025413
        </DataArray>
        <DataArray type="Float32" Name="dip" NumberOfComponents="1" format="ascii">
39.276981
        </DataArray>
        <DataArray type="Float32" Name="unit slip" NumberOfComponents="3" format="ascii">
-0.777425 -0.628976 0.000000
        </DataArray>
      </CellData>
    </Piece>
    <Piece NumberOfPoints="4" NumberOfPolys="1">
      <Points>
        <DataArray type="Float32" Name="Fault Patch" NumberOfComponents="3" format="ascii">
-405.140831 -938.275496 105.031977
-426.293703 -959.548859 105.031977
-405.020340 -980.701732 129.756122
-383.867468 -959.428369 129.756122
        </DataArray>
      </Points>
      <Polys>
        <DataArray type="Int32" Name="connectivity" format="ascii" RangeMin="0" RangeMax="-1">
0 1 2 3
        </DataArray>
        <DataArray type="Int32" Name="offsets" format="ascii" RangeMin="4" RangeMax="4">
          4
        </DataArray>
      </Polys>
      <CellData Scalar="geometry">
        <DataArray type="Float32" Name="strike" NumberOfComponents="1" format="ascii">
-134.837280
        </DataArray>
        <DataArray type="Float32" Name="dip" NumberOfComponents="1" format="ascii">
39.493237
        </DataArray>
        <DataArray type="Float32" Name="unit slip" NumberOfComponents="3" format="ascii">
-0.705096 -0.709112 -0.000000
        </DataArray>
      </CellData>
    </Piece>
    <Piece NumberOfPoints="4" NumberOfPolys="1">
      <Points>
        <DataArray type="Float32" Name="Fault Patch" NumberOfComponents="3" format="ascii">
-576.025404 -1002.294734 60.315812
-604.236042 -1012.500611 60.315812
-594.030164 -1040.711249 84.875796
-565.819527 -1030.505372 84.875796
        </DataArray>
      </Points>
      <Polys>
        <DataArray type="Int32" Name="connectivity" format="ascii" RangeMin="0" RangeMax="-1">
0 1 2 3
        </DataArray>
        <DataArray type="Int32" Name="offsets" format="ascii" RangeMin="4" RangeMax="4">
          4
        </DataArray>
      </Polys>
      <CellData Scalar="geometry">
        <DataArray type="Float32" Name="strike" NumberOfComponents="1" format="ascii">
-160.111190
        </DataArray>
        <DataArray type="Float32" Name="dip" NumberOfComponents="1" format="ascii">
39.306025
        </DataArray>
        <DataArray type="Float32" Name="unit slip" NumberOfComponents="3" format="ascii">
-0.940355 -0.340196 -0.000000
        </DataArray>
      </CellData>
    </Piece>
    <Piece NumberOfPoints="4" NumberOfPolys="1">
      <Points>
        <DataArray type="Float32" Name="Fault Patch" NumberOfComponents="3" format="ascii">
-550.044642 -987.294734 60.265008
-577.456140 -999.485294 60.265008
-565.265580 -1026.896792 81.044334
-537.854082 -1014.706232 81.044334
        </DataArray>
      </Points>
      <Polys>
        <DataArray type="Int32" Name="connectivity" format="ascii" RangeMin="0" RangeMax="-1">
0 1 2 3
        </DataArray>
        <DataArray type="Int32" Name="offsets" format="ascii" RangeMin="4" RangeMax="4">
          4
        </DataArray>
      </Polys>
      <CellData Scalar="geometry">
        <DataArray type="Float32" Name="strike" NumberOfComponents="1" format="ascii">
-156.024121
        </DataArray>
        <DataArray type="Float32" Name="dip" NumberOfComponents="1" format="ascii">
34.708185
        </DataArray>
        <DataArray type="Float32" Name="unit slip" NumberOfComponents="3" format="ascii">
-0.913717 -0.406352 -0.000000
        </DataArray>
      </CellData>
    </Piece>
    <Piece NumberOfPoints="4" NumberOfPolys="1">
      <Points>
        <DataArray type="Float32" Name="Fault Patch" NumberOfComponents="3" format="ascii">
-524.063880 -972.294734 62.638574
-550.226062 -986.976022 62.638574
-535.544774 -1013.138205 81.419225
-509.382592 -998.456916 81.419225
        </DataArray>
      </Points>
      <Polys>
        <DataArray type="Int32" Name="connectivity" format="ascii" RangeMin="0" RangeMax="-1">
0 1 2 3
        </DataArray>
        <DataArray type="Int32" Name="offsets" format="ascii" RangeMin="4" RangeMax="4">
          4
        </DataArray>
      </Polys>
      <CellData Scalar="geometry">
        <DataArray type="Float32" Name="strike" NumberOfComponents="1" format="ascii">
-150.700406
        </DataArray>
        <DataArray type="Float32" Name="dip" NumberOfComponents="1" format="ascii">
32.047459
        </DataArray>
        <DataArray type="Float32" Name="unit slip" NumberOfComponents="3" format="ascii">
-0.872073 -0.489376 -0.000000
        </DataArray>
      </CellData>
    </Piece>
    <Piece NumberOfPoints="4" NumberOfPolys="1">
      <Points>
        <DataArray type="Float32" Name="Fault Patch" NumberOfComponents="3" format="ascii">
-498.083117 -957.294734 65.809408
-522.760659 -974.354010 65.809408
-505.701383 -999.031553 84.263733
-481.023841 -981.972276 84.263733
        </DataArray>
      </Points>
      <Polys>
        <DataArray type="Int32" Name="connectivity" format="ascii" RangeMin="0" RangeMax="-1">
0 1 2 3
        </DataArray>
        <DataArray type="Int32" Name="offsets" format="ascii" RangeMin="4" RangeMax="4">
          4
        </DataArray>
      </Polys>
      <CellData Scalar="geometry">
        <DataArray type="Float32" Name="strike" NumberOfComponents="1" format="ascii">
-145.344380
        </DataArray>
        <DataArray type="Float32" Name="dip" NumberOfComponents="1" format="ascii">
31.597508
        </DataArray>
        <DataArray type="Float32" Name="unit slip" NumberOfComponents="3" format="ascii">
-0.822585 -0.568643 -0.000000
        </DataArray>
      </CellData>
    </Piece>
    <Piece NumberOfPoints="4" NumberOfPolys="1">
      <Points>
        <DataArray type="Float32" Name="Fault Patch" NumberOfComponents="3" format="ascii">
-472.102355 -942.294734 70.136005
-495.086396 -961.575134 70.136005
-475.805996 -984.559176 89.066175
-452.821955 -965.278775 89.066175
        </DataArray>
      </Points>
      <Polys>
        <DataArray type="Int32" Name="connectivity" format="ascii" RangeMin="0" RangeMax="-1">
0 1 2 3
        </DataArray>
        <DataArray type="Int32" Name="offsets" format="ascii" RangeMin="4" RangeMax="4">
          4
        </DataArray>
      </Polys>
      <CellData Scalar="geometry">
        <DataArray type="Float32" Name="strike" NumberOfComponents="1" format="ascii">
-140.008047
        </DataArray>
        <DataArray type="Float32" Name="dip" NumberOfComponents="1" format="ascii">
32.252158
        </DataArray>
        <DataArray type="Float32" Name="unit slip" NumberOfComponents="3" format="ascii">
-0.766135 -0.642680 -0.000000
        </DataArray>
      </CellData>
    </Piece>
    <Piece NumberOfPoints="4" NumberOfPolys="1">
      <Points>
        <DataArray type="Float32" Name="Fault Patch" NumberOfComponents="3" format="ascii">
-446.121593 -927.294734 76.608734
-466.582910 -949.234071 76.608734
-444.643572 -969.695388 96.478967
-424.182256 -947.756051 96.478967
        </DataArray>
      </Points>
      <Polys>
        <DataArray type="Int32" Name="connectivity" format="ascii" RangeMin="0" RangeMax="-1">
0 1 2 3
        </DataArray>
        <DataArray type="Int32" Name="offsets" format="ascii" RangeMin="4" RangeMax="4">
          4
        </DataArray>
      </Polys>
      <CellData Scalar="geometry">
        <DataArray type="Float32" Name="strike" NumberOfComponents="1" format="ascii">
-133.003567
        </DataArray>
        <DataArray type="Float32" Name="dip" NumberOfComponents="1" format="ascii">
33.518145
        </DataArray>
        <DataArray type="Float32" Name="unit slip" NumberOfComponents="3" format="ascii">
-0.682044 -0.731311 0.000000
        </DataArray>
      </CellData>
    </Piece>
    <Piece NumberOfPoints="4" NumberOfPolys="1">
      <Points>
        <DataArray type="Float32" Name="Fault Patch" NumberOfComponents="3" format="ascii">
-420.140831 -912.294734 85.121261
-437.830982 -936.524025 85.121261
-413.601690 -954.214176 106.174912
-395.911540 -929.984885 106.174912
        </DataArray>
      </Points>
      <Polys>
        <DataArray type="Int32" Name="connectivity" format="ascii" RangeMin="0" RangeMax="-1">
0 1 2 3
        </DataArray>
        <DataArray type="Int32" Name="offsets" format="ascii" RangeMin="4" RangeMax="4">
          4
        </DataArray>
      </Polys>
      <CellData Scalar="geometry">
        <DataArray type="Float32" Name="strike" NumberOfComponents="1" format="ascii">
-126.133714
        </DataArray>
        <DataArray type="Float32" Name="dip" NumberOfComponents="1" format="ascii">
35.060732
        </DataArray>
        <DataArray type="Float32" Name="unit slip" NumberOfComponents="3" format="ascii">
-0.589672 -0.807643 -0.000000
        </DataArray>
      </CellData>
    </Piece>
    <Piece NumberOfPoints="4" NumberOfPolys="1">
      <Points>
        <DataArray type="Float32" Name="Fault Patch" NumberOfComponents="3" format="ascii">
-394.160069 -897.294734 95.949244
-411.231638 -921.963774 95.949244
-386.562599 -939.035343 118.630334
-369.491029 -914.366303 118.630334
        </DataArray>
      </Points>
      <Polys>
        <DataArray type="Int32" Name="connectivity" format="ascii" RangeMin="0" RangeMax="-1">
0 1 2 3
        </DataArray>
        <DataArray type="Int32" Name="offsets" format="ascii" RangeMin="4" RangeMax="4">
          4
        </DataArray>
      </Polys>
      <CellData Scalar="geometry">
        <DataArray type="Float32" Name="strike" NumberOfComponents="1" format="ascii">
-124.684167
        </DataArray>
        <DataArray type="Float32" Name="dip" NumberOfComponents="1" format="ascii">
37.090605
        </DataArray>
        <DataArray type="Float32" Name="unit slip" NumberOfComponents="3" format="ascii">
-0.569052 -0.822301 0.000000
        </DataArray>
      </CellData>
    </Piece>
    <Piece NumberOfPoints="4" NumberOfPolys="1">
      <Points>
        <DataArray type="Float32" Name="Fault Patch" NumberOfComponents="3" format="ascii">
-368.179307 -882.294734 104.554008
-388.140446 -904.690112 104.554008
-365.745068 -924.651250 127.911337
-345.783929 -902.255873 127.911337
        </DataArray>
      </Points>
      <Polys>
        <DataArray type="Int32" Name="connectivity" format="ascii" RangeMin="0" RangeMax="-1">
0 1 2 3
        </DataArray>
        <DataArray type="Int32" Name="offsets" format="ascii" RangeMin="4" RangeMax="4">
          4
        </DataArray>
      </Polys>
      <CellData Scalar="geometry">
        <DataArray type="Float32" Name="strike" NumberOfComponents="1" format="ascii">
-131.710816
        </DataArray>
        <DataArray type="Float32" Name="dip" NumberOfComponents="1" format="ascii">
37.903527
        </DataArray>
        <DataArray type="Float32" Name="unit slip" NumberOfComponents="3" format="ascii">
-0.665371 -0.746513 0.000000
        </DataArray>
      </CellData>
    </Piece>
    <Piece NumberOfPoints="4" NumberOfPolys="1">
      <Points>
        <DataArray type="Float32" Name="Fault Patch" NumberOfComponents="3" format="ascii">
-342.198545 -867.294734 106.524186
-362.755532 -889.144455 106.524186
-340.905811 -909.701442 128.467580
-320.348824 -887.851721 128.467580
        </DataArray>
      </Points>
      <Polys>
        <DataArray type="Int32" Name="connectivity" format="ascii" RangeMin="0" RangeMax="-1">
0 1 2 3
        </DataArray>
        <DataArray type="Int32" Name="offsets" format="ascii" RangeMin="4" RangeMax="4">
          4
        </DataArray>
      </Polys>
      <CellData Scalar="geometry">
        <DataArray type="Float32" Name="strike" NumberOfComponents="1" format="ascii">
-133.253925
        </DataArray>
        <DataArray type="Float32" Name="dip" NumberOfComponents="1" format="ascii">
36.183472
        </DataArray>
        <DataArray type="Float32" Name="unit slip" NumberOfComponents="3" format="ascii">
-0.685233 -0.728324 -0.000000
        </DataArray>
      </CellData>
    </Piece>
    <Piece NumberOfPoints="4" NumberOfPolys="1">
      <Points>
        <DataArray type="Float32" Name="Fault Patch" NumberOfComponents="3" format="ascii">
-316.217783 -852.294734 112.821702
-332.602514 -877.425205 112.821702
-307.472043 -893.809937 135.346163
-291.087312 -868.679465 135.346163
        </DataArray>
      </Points>
      <Polys>
        <DataArray type="Int32" Name="connectivity" format="ascii" RangeMin="0" RangeMax="-1">
0 1 2 3
        </DataArray>
        <DataArray type="Int32" Name="offsets" format="ascii" RangeMin="4" RangeMax="4">
          4
        </DataArray>
      </Polys>
      <CellData Scalar="geometry">
        <DataArray type="Float32" Name="strike" NumberOfComponents="1" format="ascii">
-123.103813
        </DataArray>
        <DataArray type="Float32" Name="dip" NumberOfComponents="1" format="ascii">
36.899785
        </DataArray>
        <DataArray type="Float32" Name="unit slip" NumberOfComponents="3" format="ascii">
-0.546158 -0.837682 -0.000000
        </DataArray>
      </CellData>
    </Piece>
    <Piece NumberOfPoints="4" NumberOfPolys="1">
      <Points>
        <DataArray type="Float32" Name="Fault Patch" NumberOfComponents="3" format="ascii">
-591.025404 -976.313972 43.306931
-617.667234 -990.105740 43.306931
-603.875466 -1016.747571 55.699304
-577.233636 -1002.955803 55.699304
        </DataArray>
      </Points>
      <Polys>
        <DataArray type="Int32" Name="connectivity" format="ascii" RangeMin="0" RangeMax="-1">
0 1 2 3
        </DataArray>
        <DataArray type="Int32" Name="offsets" format="ascii" RangeMin="4" RangeMax="4">
          4
        </DataArray>
      </Polys>
      <CellData Scalar="geometry">
        <DataArray type="Float32" Name="strike" NumberOfComponents="1" format="ascii">
-152.630597
        </DataArray>
        <DataArray type="Float32" Name="dip" NumberOfComponents="1" format="ascii">
22.444496
        </DataArray>
        <DataArray type="Float32" Name="unit slip" NumberOfComponents="3" format="ascii">
-0.888061 -0.459726 -0.000000
        </DataArray>
      </CellData>
    </Piece>
    <Piece NumberOfPoints="4" NumberOfPolys="1">
      <Points>
        <DataArray type="Float32" Name="Fault Patch" NumberOfComponents="3" format="ascii">
-565.044642 -961.313972 42.957178
-591.013312 -976.334896 42.957178
-575.992388 -1002.303566 54.393181
-550.023718 -987.282642 54.393181
        </DataArray>
      </Points>
      <Polys>
        <DataArray type="Int32" Name="connectivity" format="ascii" RangeMin="0" RangeMax="-1">
0 1 2 3
        </DataArray>
        <DataArray type="Int32" Name="offsets" format="ascii" RangeMin="4" RangeMax="4">
          4
        </DataArray>
      </Polys>
      <CellData Scalar="geometry">
        <DataArray type="Float32" Name="strike" NumberOfComponents="1" format="ascii">
-149.953845
        </DataArray>
        <DataArray type="Float32" Name="dip" NumberOfComponents="1" format="ascii">
20.866851
        </DataArray>
        <DataArray type="Float32" Name="unit slip" NumberOfComponents="3" format="ascii">
-0.865622 -0.500697 -0.000000
        </DataArray>
      </CellData>
    </Piece>
    <Piece NumberOfPoints="4" NumberOfPolys="1">
      <Points>
        <DataArray type="Float32" Name="Fault Patch" NumberOfComponents="3" format="ascii">
-539.063880 -946.313972 45.059173
-563.891656 -963.153851 45.059173
-547.051778 -987.981627 57.170940
-522.224001 -971.141748 57.170940
        </DataArray>
      </Points>
      <Polys>
        <DataArray type="Int32" Name="connectivity" format="ascii" RangeMin="0" RangeMax="-1">
0 1 2 3
        </DataArray>
        <DataArray type="Int32" Name="offsets" format="ascii" RangeMin="4" RangeMax="4">
          4
        </DataArray>
      </Polys>
      <CellData Scalar="geometry">
        <DataArray type="Float32" Name="strike" NumberOfComponents="1" format="ascii">
-145.852223
        </DataArray>
        <DataArray type="Float32" Name="dip" NumberOfComponents="1" format="ascii">
21.985189
        </DataArray>
        <DataArray type="Float32" Name="unit slip" NumberOfComponents="3" format="ascii">
-0.827593 -0.561329 -0.000000
        </DataArray>
      </CellData>
    </Piece>
    <Piece NumberOfPoints="4" NumberOfPolys="1">
      <Points>
        <DataArray type="Float32" Name="Fault Patch" NumberOfComponents="3" format="ascii">
-513.083117 -931.313972 48.558336
-536.341198 -950.262894 48.558336
-517.392276 -973.520976 61.929935
-494.134194 -954.572053 61.929935
        </DataArray>
      </Points>
      <Polys>
        <DataArray type="Int32" Name="connectivity" format="ascii" RangeMin="0" RangeMax="-1">
0 1 2 3
        </DataArray>
        <DataArray type="Int32" Name="offsets" format="ascii" RangeMin="4" RangeMax="4">
          4
        </DataArray>
      </Polys>
      <CellData Scalar="geometry">
        <DataArray type="Float32" Name="strike" NumberOfComponents="1" format="ascii">
-140.829461
        </DataArray>
        <DataArray type="Float32" Name="dip" NumberOfComponents="1" format="ascii">
24.023488
        </DataArray>
        <DataArray type="Float32" Name="unit slip" NumberOfComponents="3" format="ascii">
-0.775269 -0.631631 0.000000
        </DataArray>
      </CellData>
    </Piece>
    <Piece NumberOfPoints="4" NumberOfPolys="1">
      <Points>
        <DataArray type="Float32" Name="Fault Patch" NumberOfComponents="3" format="ascii">
-487.102355 -916.313972 52.954846
-508.352729 -937.489939 52.954846
-487.176762 -958.740314 67.536602
-465.926388 -937.564346 67.536602
        </DataArray>
      </Points>
      <Polys>
        <DataArray type="Int32" Name="connectivity" format="ascii" RangeMin="0" RangeMax="-1">
0 1 2 3
        </DataArray>
        <DataArray type="Int32" Name="offsets" format="ascii" RangeMin="4" RangeMax="4">
          4
        </DataArray>
      </Polys>
      <CellData Scalar="geometry">
        <DataArray type="Float32" Name="strike" NumberOfComponents="1" format="ascii">
-135.100485
        </DataArray>
        <DataArray type="Float32" Name="dip" NumberOfComponents="1" format="ascii">
25.922465
        </DataArray>
        <DataArray type="Float32" Name="unit slip" NumberOfComponents="3" format="ascii">
-0.708346 -0.705866 -0.000000
        </DataArray>
      </CellData>
    </Piece>
    <Piece NumberOfPoints="4" NumberOfPolys="1">
      <Points>
        <DataArray type="Float32" Name="Fault Patch" NumberOfComponents="3" format="ascii">
-461.121593 -901.313972 59.128020
-479.581959 -924.961697 59.128020
-455.934234 -943.422063 75.449454
-437.473868 -919.774338 75.449454
        </DataArray>
      </Points>
      <Polys>
        <DataArray type="Int32" Name="connectivity" format="ascii" RangeMin="0" RangeMax="-1">
0 1 2 3
        </DataArray>
        <DataArray type="Int32" Name="offsets" format="ascii" RangeMin="4" RangeMax="4">
          4
        </DataArray>
      </Polys>
      <CellData Scalar="geometry">
        <DataArray type="Float32" Name="strike" NumberOfComponents="1" format="ascii">
-127.977031
        </DataArray>
        <DataArray type="Float32" Name="dip" NumberOfComponents="1" format="ascii">
28.548304
        </DataArray>
        <DataArray type="Float32" Name="unit slip" NumberOfComponents="3" format="ascii">
-0.615346 -0.788257 -0.000000
        </DataArray>
      </CellData>
    </Piece>
    <Piece NumberOfPoints="4" NumberOfPolys="1">
      <Points>
        <DataArray type="Float32" Name="Fault Patch" NumberOfComponents="3" format="ascii">
-435.140831 -886.313972 69.465498
-452.458469 -910.810899 69.465498
-427.961542 -928.128537 88.509504
-410.643904 -903.631610 88.509504
        </DataArray>
      </Points>
      <Polys>
        <DataArray type="Int32" Name="connectivity" format="ascii" RangeMin="0" RangeMax="-1">
0 1 2 3
        </DataArray>
        <DataArray type="Int32" Name="offsets" format="ascii" RangeMin="4" RangeMax="4">
          4
        </DataArray>
      </Polys>
      <CellData Scalar="geometry">
        <DataArray type="Float32" Name="strike" NumberOfComponents="1" format="ascii">
-125.257676
        </DataArray>
        <DataArray type="Float32" Name="dip" NumberOfComponents="1" format="ascii">
32.407388
        </DataArray>
        <DataArray type="Float32" Name="unit slip" NumberOfComponents="3" format="ascii">
-0.577255 -0.816564 -0.000000
        </DataArray>
      </CellData>
    </Piece>
    <Piece NumberOfPoints="4" NumberOfPolys="1">
      <Points>
        <DataArray type="Float32" Name="Fault Patch" NumberOfComponents="3" format="ascii">
-409.160069 -871.313972 83.523929
-427.988204 -894.669942 83.523929
-404.632234 -913.498077 105.829479
-385.804099 -890.142107 105.829479
        </DataArray>
      </Points>
      <Polys>
        <DataArray type="Int32" Name="connectivity" format="ascii" RangeMin="0" RangeMax="-1">
0 1 2 3
        </DataArray>
        <DataArray type="Int32" Name="offsets" format="ascii" RangeMin="4" RangeMax="4">
          4
        </DataArray>
      </Polys>
      <CellData Scalar="geometry">
        <DataArray type="Float32" Name="strike" NumberOfComponents="1" format="ascii">
-128.873607
        </DataArray>
        <DataArray type="Float32" Name="dip" NumberOfComponents="1" format="ascii">
36.631479
        </DataArray>
        <DataArray type="Float32" Name="unit slip" NumberOfComponents="3" format="ascii">
-0.627604 -0.778532 0.000000
        </DataArray>
      </CellData>
    </Piece>
    <Piece NumberOfPoints="4" NumberOfPolys="1">
      <Points>
        <DataArray type="Float32" Name="Fault Patch" NumberOfComponents="3" format="ascii">
-383.179307 -856.313972 90.969121
-402.994784 -878.838334 90.969121
-380.470421 -898.653811 114.110845
-360.654945 -876.129449 114.110845
        </DataArray>
      </Points>
      <Polys>
        <DataArray type="Int32" Name="connectivity" format="ascii" RangeMin="0" RangeMax="-1">
0 1 2 3
        </DataArray>
        <DataArray type="Int32" Name="offsets" format="ascii" RangeMin="4" RangeMax="4">
          4
        </DataArray>
      </Polys>
      <CellData Scalar="geometry">
        <DataArray type="Float32" Name="strike" NumberOfComponents="1" format="ascii">
-131.339229
        </DataArray>
        <DataArray type="Float32" Name="dip" NumberOfComponents="1" format="ascii">
37.646264
        </DataArray>
        <DataArray type="Float32" Name="unit slip" NumberOfComponents="3" format="ascii">
-0.660516 -0.750812 0.000000
        </DataArray>
      </CellData>
    </Piece>
    <Piece NumberOfPoints="4" NumberOfPolys="1">
      <Points>
        <DataArray type="Float32" Name="Fault Patch" NumberOfComponents="3" format="ascii">
-357.198545 -841.313972 91.708719
-373.442578 -866.535618 91.708719
-348.220932 -882.779650 113.035272
-331.976899 -857.558005 113.035272
        </DataArray>
      </Points>
      <Polys>
        <DataArray type="Int32" Name="connectivity" format="ascii" RangeMin="0" RangeMax="-1">
0 1 2 3
        </DataArray>
        <DataArray type="Int32" Name="offsets" format="ascii" RangeMin="4" RangeMax="4">
          4