<?xml version="1.0"?>
<VTKFile type="PolyData" version="0.1">
  <PolyData>
    <Piece NumberOfPoints="4" NumberOfPolys="1">
      <Points>
        <DataArray type="Float32" Name="Fault Patch" NumberOfComponents="3" format="ascii">
246.420000 234.460000 3.790000
223.080489 225.500801 3.790000
230.159606 207.059071 6.918689
253.499117 216.018270 6.918689
        </DataArray>
      </Points>
      <Polys>
        <DataArray type="Int32" Name="connectivity" format="ascii" RangeMin="0" RangeMax="-1">
0 1 2 3
        </DataArray>
        <DataArray type="Int32" Name="offsets" format="ascii" RangeMin="4" RangeMax="4">
          4
        </DataArray>
      </Polys>
      <CellData Normals="slip">
        <DataArray type="Float32" Name="slip" NumberOfComponents="3" format="ascii">
166.204558 64.280255 -14.203952
        </DataArray>
      </CellData>
    </Piece>
    <Piece NumberOfPoints="4" NumberOfPolys="1">
      <Points>
        <DataArray type="Float32" Name="Fault Patch" NumberOfComponents="3" format="ascii">
222.710000 226.850000 3.790000
199.370489 217.890801 3.790000
206.449606 199.449071 6.918689
229.789117 208.408270 6.918689
        </DataArray>
      </Points>
      <Polys>
        <DataArray type="Int32" Name="connectivity" format="ascii" RangeMin="0" RangeMax="-1">
0 1 2 3
        </DataArray>
        <DataArray type="Int32" Name="offsets" format="ascii" RangeMin="4" RangeMax="4">
          4
        </DataArray>
      </Polys>
      <CellData Normals="slip">
        <DataArray type="Float32" Name="slip" NumberOfComponents="3" format="ascii">
332.569808 128.141891 -28.407904
        </DataArray>
      </CellData>
    </Piece>
    <Piece NumberOfPoints="4" NumberOfPolys="1">
      <Points>
        <DataArray type="Float32" Name="Fault Patch" NumberOfComponents="3" format="ascii">
199.000000 219.100000 3.790000
175.660489 210.140801 3.790000
182.739606 191.699071 6.918689
206.079117 200.658270 6.918689
        </DataArray>
      </Points>
      <Polys>
        <DataArray type="Int32" Name="connectivity" format="ascii" RangeMin="0" RangeMax="-1">
0 1 2 3
        </DataArray>
        <DataArray type="Int32" Name="offsets" format="ascii" RangeMin="4" RangeMax="4">
          4
        </DataArray>
      </Polys>
      <CellData Normals="slip">
        <DataArray type="Float32" Name="slip" NumberOfComponents="3" format="ascii">
133.495675 52.231877 -58.417662
        </DataArray>
      </CellData>
    </Piece>
    <Piece NumberOfPoints="4" NumberOfPolys="1">
      <Points>
        <DataArray type="Float32" Name="Fault Patch" NumberOfComponents="3" format="ascii">
175.290000 211.380000 3.790000
151.950489 202.420801 3.790000
159.029606 183.979071 6.918689
182.369117 192.938270 6.918689
        </DataArray>
      </Points>
      <Polys>
        <DataArray type="Int32" Name="connectivity" format="ascii" RangeMin="0" RangeMax="-1">
0 1 2 3
        </DataArray>
        <DataArray type="Int32" Name="offsets" format="ascii" RangeMin="4" RangeMax="4">
          4
        </DataArray>
      </Polys>
      <CellData Normals="slip">
        <DataArray type="Float32" Name="slip" NumberOfComponents="3" format="ascii">
-219.457255 -83.307627 -69.061717
        </DataArray>
      </CellData>
    </Piece>
    <Piece NumberOfPoints="4" NumberOfPolys="1">
      <Points>
        <DataArray type="Float32" Name="Fault Patch" NumberOfComponents="3" format="ascii">
151.600000 203.520000 3.790000
128.260489 194.560801 3.790000
135.339606 176.119071 6.918689
158.679117 185.078270 6.918689
        </DataArray>
      </Points>
      <Polys>
        <DataArray type="Int32" Name="connectivity" format="ascii" RangeMin="0" RangeMax="-1">
0 1 2 3
        </DataArray>
        <DataArray type="Int32" Name="offsets" format="ascii" RangeMin="4" RangeMax="4">
          4
        </DataArray>
      </Polys>
      <CellData Normals="slip">
        <DataArray type="Float32" Name="slip" NumberOfComponents="3" format="ascii">
-375.075383 -143.191734 -69.752078
        </DataArray>
      </CellData>
    </Piece>
    <Piece NumberOfPoints="4" NumberOfPolys="1">
      <Points>
        <DataArray type="Float32" Name="Fault Patch" NumberOfComponents="3" format="ascii">
127.920000 195.680000 3.790000
104.580489 186.720801 3.790000
111.659606 168.279071 6.918689
134.999117 177.238270 6.918689
        </DataArray>
      </Points>
      <Polys>
        <DataArray type="Int32" Name="connectivity" format="ascii" RangeMin="0" RangeMax="-1">
0 1 2 3
        </DataArray>
        <DataArray type="Int32" Name="offsets" format="ascii" RangeMin="4" RangeMax="4">
          4
        </DataArray>
      </Polys>
      <CellData Normals="slip">
        <DataArray type="Float32" Name="slip" NumberOfComponents="3" format="ascii">
-375.075383 -143.191734 -69.752078
        </DataArray>
      </CellData>
    </Piece>
    <Piece NumberOfPoints="4" NumberOfPolys="1">
      <Points>
        <DataArray type="Float32" Name="Fault Patch" NumberOfComponents="3" format="ascii">
104.260000 187.700000 3.790000
80.920489 178.740801 3.790000
87.999606 160.299071 6.918689
111.339117 169.258270 6.918689
        </DataArray>
      </Points>
      <Polys>
        <DataArray type="Int32" Name="connectivity" format="ascii" RangeMin="0" RangeMax="-1">
0 1 2 3
        </DataArray>
        <DataArray type="Int32" Name="offsets" format="ascii" RangeMin="4" RangeMax="4">
          4
        </DataArray>
      </Polys>
      <CellData Normals="slip">
        <DataArray type="Float32" Name="slip" NumberOfComponents="3" format="ascii">
-312.606659 -119.212238 -58.126732
        </DataArray>
      </CellData>
    </Piece>
    <Piece NumberOfPoints="4" NumberOfPolys="1">
      <Points>
        <DataArray type="Float32" Name="Fault Patch" NumberOfComponents="3" format="ascii">
80.610000 179.750000 3.790000
57.270489 170.790801 3.790000
64.349606 152.349071 6.918689
87.689117 161.308270 6.918689
        </DataArray>
      </Points>
      <Polys>
        <DataArray type="Int32" Name="connectivity" format="ascii" RangeMin="0" RangeMax="-1">
0 1 2 3
        </DataArray>
        <DataArray type="Int32" Name="offsets" format="ascii" RangeMin="4" RangeMax="4">
          4
        </DataArray>
      </Polys>
      <CellData Normals="slip">
        <DataArray type="Float32" Name="slip" NumberOfComponents="3" format="ascii">
-134.156568 -50.510193 -58.417662
        </DataArray>
      </CellData>
    </Piece>
    <Piece NumberOfPoints="4" NumberOfPolys="1">
      <Points>
        <DataArray type="Float32" Name="Fault Patch" NumberOfComponents="3" format="ascii">
56.960000 171.660000 3.790000
33.620489 162.700801 3.790000
40.699606 144.259071 6.918689
64.039117 153.218270 6.918689
        </DataArray>
      </Points>
      <Polys>
        <DataArray type="Int32" Name="connectivity" format="ascii" RangeMin="0" RangeMax="-1">
0 1 2 3
        </DataArray>
        <DataArray type="Int32" Name="offsets" format="ascii" RangeMin="4" RangeMax="4">
          4
        </DataArray>
      </Polys>
      <CellData Normals="slip">
        <DataArray type="Float32" Name="slip" NumberOfComponents="3" format="ascii">
200.408736 77.917394 -87.626493
        </DataArray>
      </CellData>
    </Piece>
    <Piece NumberOfPoints="4" NumberOfPolys="1">
      <Points>
        <DataArray type="Float32" Name="Fault Patch" NumberOfComponents="3" format="ascii">
33.330000 163.600000 3.790000
9.990489 154.640801 3.790000
17.069606 136.199071 6.918689
40.409117 145.158270 6.918689
        </DataArray>
      </Points>
      <Polys>
        <DataArray type="Int32" Name="connectivity" format="ascii" RangeMin="0" RangeMax="-1">
0 1 2 3
        </DataArray>
        <DataArray type="Int32" Name="offsets" format="ascii" RangeMin="4" RangeMax="4">
          4
        </DataArray>
      </Polys>
      <CellData Normals="slip">
        <DataArray type="Float32" Name="slip" NumberOfComponents="3" format="ascii">
394.147991 152.233359 -124.311091
        </DataArray>
      </CellData>
    </Piece>
    <Piece NumberOfPoints="4" NumberOfPolys="1">
      <Points>
        <DataArray type="Float32" Name="Fault Patch" NumberOfComponents="3" format="ascii">
9.720000 155.480000 3.790000
-13.619511 146.520801 3.790000
-6.540394 128.079071 6.918689
16.799117 137.038270 6.918689
        </DataArray>
      </Points>
      <Polys>
        <DataArray type="Int32" Name="connectivity" format="ascii" RangeMin="0" RangeMax="-1">
0 1 2 3
        </DataArray>
        <DataArray type="Int32" Name="offsets" format="ascii" RangeMin="4" RangeMax="4">
          4
        </DataArray>
      </Polys>
      <CellData Normals="slip">
        <DataArray type="Float32" Name="slip" NumberOfComponents="3" format="ascii">
401.147918 154.973947 -175.252986
        </DataArray>
      </CellData>
    </Piece>
    <Piece NumberOfPoints="4" NumberOfPolys="1">
      <Points>
        <DataArray type="Float32" Name="Fault Patch" NumberOfComponents="3" format="ascii">
-13.900000 147.220000 3.790000
-37.239511 138.260801 3.790000
-30.160394 119.819071 6.918689
-6.820883 128.778270 6.918689
        </DataArray>
      </Points>
      <Polys>
        <DataArray type="Int32" Name="connectivity" format="ascii" RangeMin="0" RangeMax="-1">
0 1 2 3
        </DataArray>
        <DataArray type="Int32" Name="offsets" format="ascii" RangeMin="4" RangeMax="4">
          4
        </DataArray>
      </Polys>
      <CellData Normals="slip">
        <DataArray type="Float32" Name="slip" NumberOfComponents="3" format="ascii">
315.851523 122.270572 -212.502770
        </DataArray>
      </CellData>
    </Piece>
    <Piece NumberOfPoints="4" NumberOfPolys="1">
      <Points>
        <DataArray type="Float32" Name="Fault Patch" NumberOfComponents="3" format="ascii">
-37.490000 138.990000 3.790000
-60.829511 130.030801 3.790000
-53.750394 111.589071 6.918689
-30.410883 120.548270 6.918689
        </DataArray>
      </Points>
      <Polys>
        <DataArray type="Int32" Name="connectivity" format="ascii" RangeMin="0" RangeMax="-1">
0 1 2 3
        </DataArray>
        <DataArray type="Int32" Name="offsets" format="ascii" RangeMin="4" RangeMax="4">
          4
        </DataArray>
      </Polys>
      <CellData Normals="slip">
        <DataArray type="Float32" Name="slip" NumberOfComponents="3" format="ascii">
361.022233 139.609982 -242.860309
        </DataArray>
      </CellData>
    </Piece>
    <Piece NumberOfPoints="4" NumberOfPolys="1">
      <Points>
        <DataArray type="Float32" Name="Fault Patch" NumberOfComponents="3" format="ascii">
-61.080000 130.620000 3.790000
-84.419511 121.660801 3.790000
-77.340394 103.219071 6.918689
-54.000883 112.178270 6.918689
        </DataArray>
      </Points>
      <Polys>
        <DataArray type="Int32" Name="connectivity" format="ascii" RangeMin="0" RangeMax="-1">
0 1 2 3
        </DataArray>
        <DataArray type="Int32" Name="offsets" format="ascii" RangeMin="4" RangeMax="4">
          4
        </DataArray>
      </Polys>
      <CellData Normals="slip">
        <DataArray type="Float32" Name="slip" NumberOfComponents="3" format="ascii">
170.310933 66.426313 -232.902639
        </DataArray>
      </CellData>
    </Piece>
    <Piece NumberOfPoints="4" NumberOfPolys="1">
      <Points>
        <DataArray type="Float32" Name="Fault Patch" NumberOfComponents="3" format="ascii">
-84.650000 122.290000 3.790000
-107.989511 113.330801 3.790000
-100.910394 94.889071 6.918689
-77.570883 103.848270 6.918689
        </DataArray>
      </Points>
      <Polys>
        <DataArray type="Int32" Name="connectivity" format="ascii" RangeMin="0" RangeMax="-1">
0 1 2 3
        </DataArray>
        <DataArray type="Int32" Name="offsets" format="ascii" RangeMin="4" RangeMax="4">
          4
        </DataArray>
      </Polys>
      <CellData Normals="slip">
        <DataArray type="Float32" Name="slip" NumberOfComponents="3" format="ascii">
-159.636085 -60.228480 -217.375797
        </DataArray>
      </CellData>
    </Piece>
    <Piece NumberOfPoints="4" NumberOfPolys="1">
      <Points>
        <DataArray type="Float32" Name="Fault Patch" NumberOfComponents="3" format="ascii">
-108.210000 113.810000 3.790000
-131.549511 104.850801 3.790000
-124.470394 86.409071 6.918689
-101.130883 95.368270 6.918689
        </DataArray>
      </Points>
      <Polys>
        <DataArray type="Int32" Name="connectivity" format="ascii" RangeMin="0" RangeMax="-1">
0 1 2 3
        </DataArray>
        <DataArray type="Int32" Name="offsets" format="ascii" RangeMin="4" RangeMax="4">
          4
        </DataArray>
      </Polys>
      <CellData Normals="slip">
        <DataArray type="Float32" Name="slip" NumberOfComponents="3" format="ascii">
-271.367698 -103.141768 -182.145231
        </DataArray>
      </CellData>
    </Piece>
    <Piece NumberOfPoints="4" NumberOfPolys="1">
      <Points>
        <DataArray type="Float32" Name="Fault Patch" NumberOfComponents="3" format="ascii">
-131.760000 105.370000 3.790000
-155.099511 96.410801 3.790000
-148.020394 77.969071 6.918689
-124.680883 86.928270 6.918689
        </DataArray>
      </Points>
      <Polys>
        <DataArray type="Int32" Name="connectivity" format="ascii" RangeMin="0" RangeMax="-1">
0 1 2 3
        </DataArray>
        <DataArray type="Int32" Name="offsets" format="ascii" RangeMin="4" RangeMax="4">
          4
        </DataArray>
      </Polys>
      <CellData Normals="slip">
        <DataArray type="Float32" Name="slip" NumberOfComponents="3" format="ascii">
-226.196988 -85.802357 -151.787693
        </DataArray>
      </CellData>
    </Piece>
    <Piece NumberOfPoints="4" NumberOfPolys="1">
      <Points>
        <DataArray type="Float32" Name="Fault Patch" NumberOfComponents="3" format="ascii">
-155.300000 96.780000 3.790000
-178.639511 87.820801 3.790000
-171.560394 69.379071 6.918689
-148.220883 78.338270 6.918689
        </DataArray>
      </Points>
      <Polys>
        <DataArray type="Int32" Name="connectivity" format="ascii" RangeMin="0" RangeMax="-1">
0 1 2 3
        </DataArray>
        <DataArray type="Int32" Name="offsets" format="ascii" RangeMin="4" RangeMax="4">
          4
        </DataArray>
      </Polys>
      <CellData Normals="slip">
        <DataArray type="Float32" Name="slip" NumberOfComponents="3" format="ascii">
-226.196988 -85.802357 -151.787693
        </DataArray>
      </CellData>
    </Piece>
    <Piece NumberOfPoints="4" NumberOfPolys="1">
      <Points>
        <DataArray type="Float32" Name="Fault Patch" NumberOfComponents="3" format="ascii">
-178.830000 88.230000 3.790000
-202.169511 79.270801 3.790000
-195.090394 60.829071 6.918689
-171.750883 69.788270 6.918689
        </DataArray>
      </Points>
      <Polys>
        <DataArray type="Int32" Name="connectivity" format="ascii" RangeMin="0" RangeMax="-1">
0 1 2 3
        </DataArray>
        <DataArray type="Int32" Name="offsets" format="ascii" RangeMin="4" RangeMax="4">
          4
        </DataArray>
      </Polys>
      <CellData Normals="slip">
        <DataArray type="Float32" Name="slip" NumberOfComponents="3" format="ascii">
-125.503634 -47.126260 -170.795269
        </DataArray>
      </CellData>
    </Piece>
    <Piece NumberOfPoints="4" NumberOfPolys="1">
      <Points>
        <DataArray type="Float32" Name="Fault Patch" NumberOfComponents="3" format="ascii">
-202.340000 79.550000 3.790000
-225.679511 70.590801 3.790000
-218.600394 52.149071 6.918689
-195.260883 61.108270 6.918689
        </DataArray>
      </Points>
      <Polys>
        <DataArray type="Int32" Name="connectivity" format="ascii" RangeMin="0" RangeMax="-1">
0 1 2 3
        </DataArray>
        <DataArray type="Int32" Name="offsets" format="ascii" RangeMin="4" RangeMax="4">
          4
        </DataArray>
      </Polys>
      <CellData Normals="slip">
        <DataArray type="Float32" Name="slip" NumberOfComponents="3" format="ascii">
-125.503634 -47.126260 -170.795269
        </DataArray>
      </CellData>
    </Piece>
    <Piece NumberOfPoints="4" NumberOfPolys="1">
      <Points>
        <DataArray type="Float32" Name="Fault Patch" NumberOfComponents="3" format="ascii">
-225.840000 70.890000 3.790000
-249.179511 61.930801 3.790000
-242.100394 43.489071 6.918689
-218.760883 52.448270 6.918689
        </DataArray>
      </Points>
      <Polys>
        <DataArray type="Int32" Name="connectivity" format="ascii" RangeMin="0" RangeMax="-1">
0 1 2 3
        </DataArray>
        <DataArray type="Int32" Name="offsets" format="ascii" RangeMin="4" RangeMax="4">
          4
        </DataArray>
      </Polys>
      <CellData Normals="slip">
        <DataArray type="Float32" Name="slip" NumberOfComponents="3" format="ascii">
-125.503634 -47.126260 -170.795269
        </DataArray>
      </CellData>
    </Piece>
    <Piece NumberOfPoints="4" NumberOfPolys="1">
      <Points>
        <DataArray type="Float32" Name="Fault Patch" NumberOfComponents="3" format="ascii">
-249.340000 62.190000 3.790000
-272.679511 53.230801 3.790000
-265.600394 34.789071 6.918689
-242.260883 43.748270 6.918689
        </DataArray>
      </Points>
      <Polys>
        <DataArray type="Int32" Name="connectivity" format="ascii" RangeMin="0" RangeMax="-1">
0 1 2 3
        </DataArray>
        <DataArray type="Int32" Name="offsets" format="ascii" RangeMin="4" RangeMax="4">
          4
        </DataArray>
      </Polys>
      <CellData Normals="slip">
        <DataArray type="Float32" Name="slip" NumberOfComponents="3" format="ascii">
-102.748668 -38.391447 -139.741584
        </DataArray>
      </CellData>
    </Piece>
    <Piece NumberOfPoints="4" NumberOfPolys="1">
      <Points>
        <DataArray type="Float32" Name="Fault Patch" NumberOfComponents="3" format="ascii">
-272.820000 53.340000 3.790000
-296.159511 44.380801 3.790000
-289.080394 25.939071 6.918689
-265.740883 34.898270 6.918689
        </DataArray>
      </Points>
      <Polys>
        <DataArray type="Int32" Name="connectivity" format="ascii" RangeMin="0" RangeMax="-1">
0 1 2 3
        </DataArray>
        <DataArray type="Int32" Name="offsets" format="ascii" RangeMin="4" RangeMax="4">
          4
        </DataArray>
      </Polys>
      <CellData Normals="slip">
        <DataArray type="Float32" Name="slip" NumberOfComponents="3" format="ascii">
-234.526158 -89.038469 -102.230908
        </DataArray>
      </CellData>
    </Piece>
    <Piece NumberOfPoints="4" NumberOfPolys="1">
      <Points>
        <DataArray type="Float32" Name="Fault Patch" NumberOfComponents="3" format="ascii">
-296.290000 44.540000 3.790000
-319.629511 35.580801 3.790000
-312.550394 17.139071 6.918689
-289.210883 26.098270 6.918689
        </DataArray>
      </Points>
      <Polys>
        <DataArray type="Int32" Name="connectivity" format="ascii" RangeMin="0" RangeMax="-1">
0 1 2 3
        </DataArray>
        <DataArray type="Int32" Name="offsets" format="ascii" RangeMin="4" RangeMax="4">
          4
        </DataArray>
      </Polys>
      <CellData Normals="slip">
        <DataArray type="Float32" Name="slip" NumberOfComponents="3" format="ascii">
-167.613098 -63.352952 -73.022077
        </DataArray>
      </CellData>
    </Piece>
    <Piece NumberOfPoints="4" NumberOfPolys="1">
      <Points>
        <DataArray type="Float32" Name="Fault Patch" NumberOfComponents="3" format="ascii">
-319.750000 35.590000 3.790000
-343.089511 26.630801 3.790000
-336.010394 8.189071 6.918689
-312.670883 17.148270 6.918689
        </DataArray>
      </Points>
      <Polys>
        <DataArray type="Int32" Name="connectivity" format="ascii" RangeMin="0" RangeMax="-1">
0 1 2 3
        </DataArray>
        <DataArray type="Int32" Name="offsets" format="ascii" RangeMin="4" RangeMax="4">
          4
        </DataArray>
      </Polys>
      <CellData Normals="slip">
        <DataArray type="Float32" Name="slip" NumberOfComponents="3" format="ascii">
-67.243507 -24.824676 -29.208831
        </DataArray>
      </CellData>
    </Piece>
    <Piece NumberOfPoints="4" NumberOfPolys="1">
      <Points>
        <DataArray type="Float32" Name="Fault Patch" NumberOfComponents="3" format="ascii">
252.680000 216.220000 6.920000
229.340489 207.260801 6.920000
236.419606 188.819071 10.048689
259.759117 197.778270 10.048689
        </DataArray>
      </Points>
      <Polys>
        <DataArray type="Int32" Name="connectivity" format="ascii" RangeMin="0" RangeMax="-1">
0 1 2 3
        </DataArray>
        <DataArray type="Int32" Name="offsets" format="ascii" RangeMin="4" RangeMax="4">
          4
        </DataArray>
      </Polys>
      <CellData Normals="slip">
        <DataArray type="Float32" Name="slip" NumberOfComponents="3" format="ascii">
175.334668 67.666516 -10.700748
        </DataArray>
      </CellData>
    </Piece>
    <Piece NumberOfPoints="4" NumberOfPolys="1">
      <Points>
        <DataArray type="Float32" Name="Fault Patch" NumberOfComponents="3" format="ascii">
228.990000 208.570000 6.920000
205.650489 199.610801 6.920000
212.729606 181.169071 10.048689
236.069117 190.128270 10.048689
        </DataArray>
      </Points>
      <Polys>
        <DataArray type="Int32" Name="connectivity" format="ascii" RangeMin="0" RangeMax="-1">
0 1 2 3
        </DataArray>
        <DataArray type="Int32" Name="offsets" format="ascii" RangeMin="4" RangeMax="4">
          4
        </DataArray>
      </Polys>
      <CellData Normals="slip">
        <DataArray type="Float32" Name="slip" NumberOfComponents="3" format="ascii">
249.611854 96.603229 -46.501385
        </DataArray>
      </CellData>
    </Piece>
    <Piece NumberOfPoints="4" NumberOfPolys="1">
      <Points>
        <DataArray type="Float32" Name="Fault Patch" NumberOfComponents="3" format="ascii">
205.300000 200.780000 6.920000
181.960489 191.820801 6.920000
189.039606 173.379071 10.048689
212.379117 182.338270 10.048689
        </DataArray>
      </Points>
      <Polys>
        <DataArray type="Int32" Name="connectivity" format="ascii" RangeMin="0" RangeMax="-1">
0 1 2 3
        </DataArray>
        <DataArray type="Int32" Name="offsets" format="ascii" RangeMin="4" RangeMax="4">
          4
        </DataArray>
      </Polys>
      <CellData Normals="slip">
        <DataArray type="Float32" Name="slip" NumberOfComponents="3" format="ascii">
45.158616 18.384840 -62.107371
        </DataArray>
      </CellData>
    </Piece>
    <Piece NumberOfPoints="4" NumberOfPolys="1">
      <Points>
        <DataArray type="Float32" Name="Fault Patch" NumberOfComponents="3" format="ascii">
181.610000 193.010000 6.920000
158.270489 184.050801 6.920000
165.349606 165.609071 10.048689
188.689117 174.568270 10.048689
        </DataArray>
      </Points>
      <Polys>
        <DataArray type="Int32" Name="connectivity" format="ascii" RangeMin="0" RangeMax="-1">
0 1 2 3
        </DataArray>
        <DataArray type="Int32" Name="offsets" format="ascii" RangeMin="4" RangeMax="4">
          4
        </DataArray>
      </Polys>
      <CellData Normals="slip">
        <DataArray type="Float32" Name="slip" NumberOfComponents="3" format="ascii">
-375.125758 -143.130659 -89.700528
        </DataArray>
      </CellData>
    </Piece>
    <Piece NumberOfPoints="4" NumberOfPolys="1">
      <Points>
        <DataArray type="Float32" Name="Fault Patch" NumberOfComponents="3" format="ascii">
157.950000 185.100000 6.920000
134.610489 176.140801 6.920000
141.689606 157.699071 10.048689
165.029117 166.658270 10.048689
        </DataArray>
      </Points>
      <Polys>
        <DataArray type="Int32" Name="connectivity" format="ascii" RangeMin="0" RangeMax="-1">
0 1 2 3
        </DataArray>
        <DataArray type="Int32" Name="offsets" format="ascii" RangeMin="4" RangeMax="4">
          4
        </DataArray>
      </Polys>
      <CellData Normals="slip">
        <DataArray type="Float32" Name="slip" NumberOfComponents="3" format="ascii">
-562.481554 -215.130223 -104.628117
        </DataArray>
      </CellData>
    </Piece>
    <Piece NumberOfPoints="4" NumberOfPolys="1">
      <Points>
        <DataArray type="Float32" Name="Fault Patch" NumberOfComponents="3" format="ascii">
134.300000 177.220000 6.920000
110.960489 168.260801 6.920000
118.039606 149.819071 10.048689
141.379117 158.778270 10.048689
        </DataArray>
      </Points>
      <Polys>
        <DataArray type="Int32" Name="connectivity" format="ascii" RangeMin="0" RangeMax="-1">
0 1 2 3
        </DataArray>
        <DataArray type="Int32" Name="offsets" format="ascii" RangeMin="4" RangeMax="4">
          4
        </DataArray>
      </Polys>
      <CellData Normals="slip">
        <DataArray type="Float32" Name="slip" NumberOfComponents="3" format="ascii">
-562.481554 -215.130223 -104.628117
        </DataArray>
      </CellData>
    </Piece>
    <Piece NumberOfPoints="4" NumberOfPolys="1">
      <Points>
        <DataArray type="Float32" Name="Fault Patch" NumberOfComponents="3" format="ascii">
110.650000 169.200000 6.920000
87.310489 160.240801 6.920000
94.389606 141.799071 10.048689
117.729117 150.758270 10.048689
        </DataArray>
      </Points>
      <Polys>
        <DataArray type="Int32" Name="connectivity" format="ascii" RangeMin="0" RangeMax="-1">
0 1 2 3
        </DataArray>
        <DataArray type="Int32" Name="offsets" format="ascii" RangeMin="4" RangeMax="4">
          4
        </DataArray>
      </Polys>
      <CellData Normals="slip">
        <DataArray type="Float32" Name="slip" NumberOfComponents="3" format="ascii">
-375.125758 -143.130659 -89.700528
        </DataArray>
      </CellData>
    </Piece>
    <Piece NumberOfPoints="4" NumberOfPolys="1">
      <Points>
        <DataArray type="Float32" Name="Fault Patch" NumberOfComponents="3" format="ascii">
87.020000 161.200000 6.920000
63.680489 152.240801 6.920000
70.759606 133.799071 10.048689
94.099117 142.758270 10.048689
        </DataArray>
      </Points>
      <Polys>
        <DataArray type="Int32" Name="connectivity" format="ascii" RangeMin="0" RangeMax="-1">
0 1 2 3
        </DataArray>
        <DataArray type="Int32" Name="offsets" format="ascii" RangeMin="4" RangeMax="4">
          4
        </DataArray>
      </Polys>
      <CellData Normals="slip">
        <DataArray type="Float32" Name="slip" NumberOfComponents="3" format="ascii">
-68.616218 -25.289227 -93.161056
        </DataArray>
      </CellData>
    </Piece>
    <Piece NumberOfPoints="4" NumberOfPolys="1">
      <Points>
        <DataArray type="Float32" Name="Fault Patch" NumberOfComponents="3" format="ascii">
63.390000 153.150000 6.920000
40.050489 144.190801 6.920000
47.129606 125.749071 10.048689
70.469117 134.708270 10.048689
        </DataArray>
      </Points>
      <Polys>
        <DataArray type="Int32" Name="connectivity" format="ascii" RangeMin="0" RangeMax="-1">
0 1 2 3
        </DataArray>
        <DataArray type="Int32" Name="offsets" format="ascii" RangeMin="4" RangeMax="4">
          4
        </DataArray>
      </Polys>
      <CellData Normals="slip">
        <DataArray type="Float32" Name="slip" NumberOfComponents="3" format="ascii">
481.805884 185.882072 -151.935778
        </DataArray>
      </CellData>
    </Piece>
    <Piece NumberOfPoints="4" NumberOfPolys="1">
      <Points>
        <DataArray type="Float32" Name="Fault Patch" NumberOfComponents="3" format="ascii">
39.790000 144.960000 6.920000
16.450489 136.000801 6.920000
23.529606 117.559071 10.048689
46.869117 126.518270 10.048689
        </DataArray>
      </Points>
      <Polys>
        <DataArray type="Int32" Name="connectivity" format="ascii" RangeMin="0" RangeMax="-1">
0 1 2 3
        </DataArray>
        <DataArray type="Int32" Name="offsets" format="ascii" RangeMin="4" RangeMax="4">
          4
        </DataArray>
      </Polys>
      <CellData Normals="slip">
        <DataArray type="Float32" Name="slip" NumberOfComponents="3" format="ascii">
700.950614 270.003852 -220.997495
        </DataArray>
      </CellData>
    </Piece>
    <Piece NumberOfPoints="4" NumberOfPolys="1">
      <Points>
        <DataArray type="Float32" Name="Fault Patch" NumberOfComponents="3" format="ascii">
16.190000 136.800000 6.920000
-7.149511 127.840801 6.920000
-0.070394 109.399071 10.048689
23.269117 118.358270 10.048689
        </DataArray>
      </Points>
      <Polys>
        <DataArray type="Int32" Name="connectivity" format="ascii" RangeMin="0" RangeMax="-1">
0 1 2 3
        </DataArray>
        <DataArray type="Int32" Name="offsets" format="ascii" RangeMin="4" RangeMax="4">
          4
        </DataArray>
      </Polys>
      <CellData Normals="slip">
        <DataArray type="Float32" Name="slip" NumberOfComponents="3" format="ascii">
668.800160 257.716016 -292.088309
        </DataArray>
      </CellData>
    </Piece>
    <Piece NumberOfPoints="4" NumberOfPolys="1">
      <Points>
        <DataArray type="Float32" Name="Fault Patch" NumberOfComponents="3" format="ascii">
-7.400000 128.490000 6.920000
-30.739511 119.530801 6.920000
-23.660394 101.089071 10.048689
-0.320883 110.048270 10.048689
        </DataArray>
      </Points>
      <Polys>
        <DataArray type="Int32" Name="connectivity" format="ascii" RangeMin="0" RangeMax="-1">
0 1 2 3
        </DataArray>
        <DataArray type="Int32" Name="offsets" format="ascii" RangeMin="4" RangeMax="4">
          4
        </DataArray>
      </Polys>
      <CellData Normals="slip">
        <DataArray type="Float32" Name="slip" NumberOfComponents="3" format="ascii">
564.290424 217.637331 -379.469232
        </DataArray>
      </CellData>
    </Piece>
    <Piece NumberOfPoints="4" NumberOfPolys="1">
      <Points>
        <DataArray type="Float32" Name="Fault Patch" NumberOfComponents="3" format="ascii">
-30.970000 120.220000 6.920000
-54.309511 111.260801 6.920000
-47.230394 92.819071 10.048689
-23.890883 101.778270 10.048689
        </DataArray>
      </Points>
      <Polys>
        <DataArray type="Int32" Name="connectivity" format="ascii" RangeMin="0" RangeMax="-1">
0 1 2 3
        </DataArray>