<?xml version="1.0"?>
<VTKFile type="PolyData" version="0.1">
  <PolyData>
    <Piece NumberOfPoints="4" NumberOfPolys="1">
      <Points>
        <DataArray type="Float32" Name="Fault Patch" NumberOfComponents="3" format="ascii">
49.130000 81.470000 6.734000
63.272136 67.327864 6.734000
74.338612 78.394341 10.060587
60.196477 92.536477 10.060587
        </DataArray>
      </Points>
      <Polys>
        <DataArray type="Int32" Name="connectivity" format="ascii" RangeMin="0" RangeMax="-1">
0 1 2 3
        </DataArray>
        <DataArray type="Int32" Name="offsets" format="ascii" RangeMin="4" RangeMax="4">
          4
        </DataArray>
      </Polys>
      <CellData Normals="slip">
        <DataArray type="Float32" Name="slip" NumberOfComponents="3" format="ascii">
-0.509946 -0.836078 -0.202308
        </DataArray>
      </CellData>
    </Piece>
    <Piece NumberOfPoints="4" NumberOfPolys="1">
      <Points>
        <DataArray type="Float32" Name="Fault Patch" NumberOfComponents="3" format="ascii">
63.290000 67.310000 6.734000
77.432136 53.167864 6.734000
88.498612 64.234341 10.060587
74.356477 78.376477 10.060587
        </DataArray>
      </Points>
      <Polys>
        <DataArray type="Int32" Name="connectivity" format="ascii" RangeMin="0" RangeMax="-1">
0 1 2 3
        </DataArray>
        <DataArray type="Int32" Name="offsets" format="ascii" RangeMin="4" RangeMax="4">
          4
        </DataArray>
      </Polys>
      <CellData Normals="slip">
        <DataArray type="Float32" Name="slip" NumberOfComponents="3" format="ascii">
-0.586513 -0.783334 -0.205888
        </DataArray>
      </CellData>
    </Piece>
    <Piece NumberOfPoints="4" NumberOfPolys="1">
      <Points>
        <DataArray type="Float32" Name="Fault Patch" NumberOfComponents="3" format="ascii">
134.200000 -3.471000 6.734000
148.342136 -17.613136 6.734000
159.408612 -6.546659 10.060587
145.266477 7.595477 10.060587
        </DataArray>
      </Points>
      <Polys>
        <DataArray type="Int32" Name="connectivity" format="ascii" RangeMin="0" RangeMax="-1">
0 1 2 3
        </DataArray>
        <DataArray type="Int32" Name="offsets" format="ascii" RangeMin="4" RangeMax="4">
          4
        </DataArray>
      </Polys>
      <CellData Normals="slip">
        <DataArray type="Float32" Name="slip" NumberOfComponents="3" format="ascii">
-0.662912 -0.666810 -0.001999
        </DataArray>
      </CellData>
    </Piece>
    <Piece NumberOfPoints="4" NumberOfPolys="1">
      <Points>
        <DataArray type="Float32" Name="Fault Patch" NumberOfComponents="3" format="ascii">
31.850000 121.000000 10.060000
45.992136 106.857864 10.060000
57.058612 117.924341 13.386587
42.916477 132.066477 13.386587
        </DataArray>
      </Points>
      <Polys>
        <DataArray type="Int32" Name="connectivity" format="ascii" RangeMin="0" RangeMax="-1">
0 1 2 3
        </DataArray>
        <DataArray type="Int32" Name="offsets" format="ascii" RangeMin="4" RangeMax="4">
          4
        </DataArray>
      </Polys>
      <CellData Normals="slip">
        <DataArray type="Float32" Name="slip" NumberOfComponents="3" format="ascii">
-0.823556 -0.529525 -0.203368
        </DataArray>
      </CellData>
    </Piece>
    <Piece NumberOfPoints="4" NumberOfPolys="1">
      <Points>
        <DataArray type="Float32" Name="Fault Patch" NumberOfComponents="3" format="ascii">
45.990000 106.800000 10.060000
60.132136 92.657864 10.060000
71.198612 103.724341 13.386587
57.056477 117.866477 13.386587
        </DataArray>
      </Points>
      <Polys>
        <DataArray type="Int32" Name="connectivity" format="ascii" RangeMin="0" RangeMax="-1">
0 1 2 3
        </DataArray>
        <DataArray type="Int32" Name="offsets" format="ascii" RangeMin="4" RangeMax="4">
          4
        </DataArray>
      </Polys>
      <CellData Normals="slip">
        <DataArray type="Float32" Name="slip" NumberOfComponents="3" format="ascii">
-0.658003 -0.723808 -0.207686
        </DataArray>
      </CellData>
    </Piece>
    <Piece NumberOfPoints="4" NumberOfPolys="1">
      <Points>
        <DataArray type="Float32" Name="Fault Patch" NumberOfComponents="3" format="ascii">
60.140000 92.630000 10.060000
74.282136 78.487864 10.060000
85.348612 89.554341 13.386587
71.206477 103.696477 13.386587
        </DataArray>
      </Points>
      <Polys>
        <DataArray type="Int32" Name="connectivity" format="ascii" RangeMin="0" RangeMax="-1">
0 1 2 3
        </DataArray>
        <DataArray type="Int32" Name="offsets" format="ascii" RangeMin="4" RangeMax="4">
          4
        </DataArray>
      </Polys>
      <CellData Normals="slip">
        <DataArray type="Float32" Name="slip" NumberOfComponents="3" format="ascii">
-0.658569 -0.724367 -0.415711
        </DataArray>
      </CellData>
    </Piece>
    <Piece NumberOfPoints="4" NumberOfPolys="1">
      <Points>
        <DataArray type="Float32" Name="Fault Patch" NumberOfComponents="3" format="ascii">
74.290000 78.470000 10.060000
88.432136 64.327864 10.060000
99.498612 75.394341 13.386587
85.356477 89.536477 13.386587
        </DataArray>
      </Points>
      <Polys>
        <DataArray type="Int32" Name="connectivity" format="ascii" RangeMin="0" RangeMax="-1">
0 1 2 3
        </DataArray>
        <DataArray type="Int32" Name="offsets" format="ascii" RangeMin="4" RangeMax="4">
          4
        </DataArray>
      </Polys>
      <CellData Normals="slip">
        <DataArray type="Float32" Name="slip" NumberOfComponents="3" format="ascii">
-0.658569 -0.724367 -0.415711
        </DataArray>
      </CellData>
    </Piece>
    <Piece NumberOfPoints="4" NumberOfPolys="1">
      <Points>
        <DataArray type="Float32" Name="Fault Patch" NumberOfComponents="3" format="ascii">
88.450000 64.300000 10.060000
102.592136 50.157864 10.060000
113.658612 61.224341 13.386587
99.516477 75.366477 13.386587
        </DataArray>
      </Points>
      <Polys>
        <DataArray type="Int32" Name="connectivity" format="ascii" RangeMin="0" RangeMax="-1">
0 1 2 3
        </DataArray>
        <DataArray type="Int32" Name="offsets" format="ascii" RangeMin="4" RangeMax="4">
          4
        </DataArray>
      </Polys>
      <CellData Normals="slip">
        <DataArray type="Float32" Name="slip" NumberOfComponents="3" format="ascii">
-0.658003 -0.723808 -0.207686
        </DataArray>
      </CellData>
    </Piece>
    <Piece NumberOfPoints="4" NumberOfPolys="1">
      <Points>
        <DataArray type="Float32" Name="Fault Patch" NumberOfComponents="3" format="ascii">
28.710000 146.300000 13.390000
42.852136 132.157864 13.390000
53.918612 143.224341 16.716587
39.776477 157.366477 16.716587
        </DataArray>
      </Points>
      <Polys>
        <DataArray type="Int32" Name="connectivity" format="ascii" RangeMin="0" RangeMax="-1">
0 1 2 3
        </DataArray>
        <DataArray type="Int32" Name="offsets" format="ascii" RangeMin="4" RangeMax="4">
          4
        </DataArray>
      </Polys>
      <CellData Normals="slip">
        <DataArray type="Float32" Name="slip" NumberOfComponents="3" format="ascii">
-0.810589 -0.548817 -0.204319
        </DataArray>
      </CellData>
    </Piece>
    <Piece NumberOfPoints="4" NumberOfPolys="1">
      <Points>
        <DataArray type="Float32" Name="Fault Patch" NumberOfComponents="3" format="ascii">
42.850000 132.100000 13.390000
56.992136 117.957864 13.390000
68.058612 129.024341 16.716587
53.916477 143.166477 16.716587
        </DataArray>
      </Points>
      <Polys>
        <DataArray type="Int32" Name="connectivity" format="ascii" RangeMin="0" RangeMax="-1">
0 1 2 3
        </DataArray>
        <DataArray type="Int32" Name="offsets" format="ascii" RangeMin="4" RangeMax="4">
          4
        </DataArray>
      </Polys>
      <CellData Normals="slip">
        <DataArray type="Float32" Name="slip" NumberOfComponents="3" format="ascii">
-1.027196 -0.311036 -0.402273
        </DataArray>
      </CellData>
    </Piece>
    <Piece NumberOfPoints="4" NumberOfPolys="1">
      <Points>
        <DataArray type="Float32" Name="Fault Patch" NumberOfComponents="3" format="ascii">
56.990000 117.900000 13.390000
71.132136 103.757864 13.390000
82.198612 114.824341 16.716587
68.056477 128.966477 16.716587
        </DataArray>
      </Points>
      <Polys>
        <DataArray type="Int32" Name="connectivity" format="ascii" RangeMin="0" RangeMax="-1">
0 1 2 3
        </DataArray>
        <DataArray type="Int32" Name="offsets" format="ascii" RangeMin="4" RangeMax="4">
          4
        </DataArray>
      </Polys>
      <CellData Normals="slip">
        <DataArray type="Float32" Name="slip" NumberOfComponents="3" format="ascii">
-0.933260 -0.440695 -0.619517
        </DataArray>
      </CellData>
    </Piece>
    <Piece NumberOfPoints="4" NumberOfPolys="1">
      <Points>
        <DataArray type="Float32" Name="Fault Patch" NumberOfComponents="3" format="ascii">
71.140000 103.800000 13.390000
85.282136 89.657864 13.390000
96.348612 100.724341 16.716587
82.206477 114.866477 16.716587
        </DataArray>
      </Points>
      <Polys>
        <DataArray type="Int32" Name="connectivity" format="ascii" RangeMin="0" RangeMax="-1">
0 1 2 3
        </DataArray>
        <DataArray type="Int32" Name="offsets" format="ascii" RangeMin="4" RangeMax="4">
          4
        </DataArray>
      </Polys>
      <CellData Normals="slip">
        <DataArray type="Float32" Name="slip" NumberOfComponents="3" format="ascii">
-0.559296 -0.822516 -0.830746
        </DataArray>
      </CellData>
    </Piece>
    <Piece NumberOfPoints="4" NumberOfPolys="1">
      <Points>
        <DataArray type="Float32" Name="Fault Patch" NumberOfComponents="3" format="ascii">
85.290000 89.630000 13.390000
99.432136 75.487864 13.390000
110.498612 86.554341 16.716587
96.356477 100.696477 16.716587
        </DataArray>
      </Points>
      <Polys>
        <DataArray type="Int32" Name="connectivity" format="ascii" RangeMin="0" RangeMax="-1">
0 1 2 3
        </DataArray>
        <DataArray type="Int32" Name="offsets" format="ascii" RangeMin="4" RangeMax="4">
          4
        </DataArray>
      </Polys>
      <CellData Normals="slip">
        <DataArray type="Float32" Name="slip" NumberOfComponents="3" format="ascii">
-0.156159 -1.203246 -0.817276
        </DataArray>
      </CellData>
    </Piece>
    <Piece NumberOfPoints="4" NumberOfPolys="1">
      <Points>
        <DataArray type="Float32" Name="Fault Patch" NumberOfComponents="3" format="ascii">
99.450000 75.470000 13.390000
113.592136 61.327864 13.390000
124.658612 72.394341 16.716587
110.516477 86.536477 16.716587
        </DataArray>
      </Points>
      <Polys>
        <DataArray type="Int32" Name="connectivity" format="ascii" RangeMin="0" RangeMax="-1">
0 1 2 3
        </DataArray>
        <DataArray type="Int32" Name="offsets" format="ascii" RangeMin="4" RangeMax="4">
          4
        </DataArray>
      </Polys>
      <CellData Normals="slip">
        <DataArray type="Float32" Name="slip" NumberOfComponents="3" format="ascii">
-0.202627 -1.107914 -0.393949
        </DataArray>
      </CellData>
    </Piece>
    <Piece NumberOfPoints="4" NumberOfPolys="1">
      <Points>
        <DataArray type="Float32" Name="Fault Patch" NumberOfComponents="3" format="ascii">
184.500000 -9.392000 13.390000
198.642136 -23.534136 13.390000
209.708612 -12.467659 16.716587
195.566477 1.674477 16.716587
        </DataArray>
      </Points>
      <Polys>
        <DataArray type="Int32" Name="connectivity" format="ascii" RangeMin="0" RangeMax="-1">
0 1 2 3
        </DataArray>
        <DataArray type="Int32" Name="offsets" format="ascii" RangeMin="4" RangeMax="4">
          4
        </DataArray>
      </Polys>
      <CellData Normals="slip">
        <DataArray type="Float32" Name="slip" NumberOfComponents="3" format="ascii">
-0.449582 -0.870911 -0.198470
        </DataArray>
      </CellData>
    </Piece>
    <Piece NumberOfPoints="4" NumberOfPolys="1">
      <Points>
        <DataArray type="Float32" Name="Fault Patch" NumberOfComponents="3" format="ascii">
198.800000 -23.520000 13.390000
212.942136 -37.662136 13.390000
224.008612 -26.595659 16.716587
209.866477 -12.453523 16.716587
        </DataArray>
      </Points>
      <Polys>
        <DataArray type="Int32" Name="connectivity" format="ascii" RangeMin="0" RangeMax="-1">
0 1 2 3
        </DataArray>
        <DataArray type="Int32" Name="offsets" format="ascii" RangeMin="4" RangeMax="4">
          4
        </DataArray>
      </Polys>
      <CellData Normals="slip">
        <DataArray type="Float32" Name="slip" NumberOfComponents="3" format="ascii">
-0.469956 -0.859766 -0.199858
        </DataArray>
      </CellData>
    </Piece>
    <Piece NumberOfPoints="4" NumberOfPolys="1">
      <Points>
        <DataArray type="Float32" Name="Fault Patch" NumberOfComponents="3" format="ascii">
213.000000 -37.650000 13.390000
227.142136 -51.792136 13.390000
238.208612 -40.725659 16.716587
224.066477 -26.583523 16.716587
        </DataArray>
      </Points>
      <Polys>
        <DataArray type="Int32" Name="connectivity" format="ascii" RangeMin="0" RangeMax="-1">
0 1 2 3
        </DataArray>
        <DataArray type="Int32" Name="offsets" format="ascii" RangeMin="4" RangeMax="4">
          4
        </DataArray>
      </Polys>
      <CellData Normals="slip">
        <DataArray type="Float32" Name="slip" NumberOfComponents="3" format="ascii">
-0.490076 -0.848156 -0.201137
        </DataArray>
      </CellData>
    </Piece>
    <Piece NumberOfPoints="4" NumberOfPolys="1">
      <Points>
        <DataArray type="Float32" Name="Fault Patch" NumberOfComponents="3" format="ascii">
39.720000 157.400000 16.710000
53.862136 143.257864 16.710000
64.928612 154.324341 20.036587
50.786477 168.466477 20.036587
        </DataArray>
      </Points>
      <Polys>
        <DataArray type="Int32" Name="connectivity" format="ascii" RangeMin="0" RangeMax="-1">
0 1 2 3
        </DataArray>
        <DataArray type="Int32" Name="offsets" format="ascii" RangeMin="4" RangeMax="4">
          4
        </DataArray>
      </Polys>
      <CellData Normals="slip">
        <DataArray type="Float32" Name="slip" NumberOfComponents="3" format="ascii">
-0.622939 -0.754382 -0.207012
        </DataArray>
      </CellData>
    </Piece>
    <Piece NumberOfPoints="4" NumberOfPolys="1">
      <Points>
        <DataArray type="Float32" Name="Fault Patch" NumberOfComponents="3" format="ascii">
53.850000 143.300000 16.710000
67.992136 129.157864 16.710000
79.058612 140.224341 20.036587
64.916477 154.366477 20.036587
        </DataArray>
      </Points>
      <Polys>
        <DataArray type="Int32" Name="connectivity" format="ascii" RangeMin="0" RangeMax="-1">
0 1 2 3
        </DataArray>
        <DataArray type="Int32" Name="offsets" format="ascii" RangeMin="4" RangeMax="4">
          4
        </DataArray>
      </Polys>
      <CellData Normals="slip">
        <DataArray type="Float32" Name="slip" NumberOfComponents="3" format="ascii">
-0.789613 -0.592198 -0.623059
        </DataArray>
      </CellData>
    </Piece>
    <Piece NumberOfPoints="4" NumberOfPolys="1">
      <Points>
        <DataArray type="Float32" Name="Fault Patch" NumberOfComponents="3" format="ascii">
67.990000 129.100000 16.710000
82.132136 114.957864 16.710000
93.198612 126.024341 20.036587
79.056477 140.166477 20.036587
        </DataArray>
      </Points>
      <Polys>
        <DataArray type="Int32" Name="connectivity" format="ascii" RangeMin="0" RangeMax="-1">
0 1 2 3
        </DataArray>
        <DataArray type="Int32" Name="offsets" format="ascii" RangeMin="4" RangeMax="4">
          4
        </DataArray>
      </Polys>
      <CellData Normals="slip">
        <DataArray type="Float32" Name="slip" NumberOfComponents="3" format="ascii">
-0.526393 -0.855418 -1.038432
        </DataArray>
      </CellData>
    </Piece>
    <Piece NumberOfPoints="4" NumberOfPolys="1">
      <Points>
        <DataArray type="Float32" Name="Fault Patch" NumberOfComponents="3" format="ascii">
82.140000 114.900000 16.710000
96.282136 100.757864 16.710000
107.348612 111.824341 20.036587
93.206477 125.966477 20.036587
        </DataArray>
      </Points>
      <Polys>
        <DataArray type="Int32" Name="connectivity" format="ascii" RangeMin="0" RangeMax="-1">
0 1 2 3
        </DataArray>
        <DataArray type="Int32" Name="offsets" format="ascii" RangeMin="4" RangeMax="4">
          4
        </DataArray>
      </Polys>
      <CellData Normals="slip">
        <DataArray type="Float32" Name="slip" NumberOfComponents="3" format="ascii">
0.352570 -1.705651 -1.423578
        </DataArray>
      </CellData>
    </Piece>
    <Piece NumberOfPoints="4" NumberOfPolys="1">
      <Points>
        <DataArray type="Float32" Name="Fault Patch" NumberOfComponents="3" format="ascii">
96.290000 100.800000 16.710000
110.432136 86.657864 16.710000
121.498612 97.724341 20.036587
107.356477 111.866477 20.036587
        </DataArray>
      </Points>
      <Polys>
        <DataArray type="Int32" Name="connectivity" format="ascii" RangeMin="0" RangeMax="-1">
0 1 2 3
        </DataArray>
        <DataArray type="Int32" Name="offsets" format="ascii" RangeMin="4" RangeMax="4">
          4
        </DataArray>
      </Polys>
      <CellData Normals="slip">
        <DataArray type="Float32" Name="slip" NumberOfComponents="3" format="ascii">
0.814406 -2.134898 -1.389292
        </DataArray>
      </CellData>
    </Piece>
    <Piece NumberOfPoints="4" NumberOfPolys="1">
      <Points>
        <DataArray type="Float32" Name="Fault Patch" NumberOfComponents="3" format="ascii">
110.400000 86.620000 16.710000
124.542136 72.477864 16.710000
135.608612 83.544341 20.036587
121.466477 97.686477 20.036587
        </DataArray>
      </Points>
      <Polys>
        <DataArray type="Int32" Name="connectivity" format="ascii" RangeMin="0" RangeMax="-1">
0 1 2 3
        </DataArray>
        <DataArray type="Int32" Name="offsets" format="ascii" RangeMin="4" RangeMax="4">
          4
        </DataArray>
      </Polys>
      <CellData Normals="slip">
        <DataArray type="Float32" Name="slip" NumberOfComponents="3" format="ascii">
0.250017 -1.560557 -0.787898
        </DataArray>
      </CellData>
    </Piece>
    <Piece NumberOfPoints="4" NumberOfPolys="1">
      <Points>
        <DataArray type="Float32" Name="Fault Patch" NumberOfComponents="3" format="ascii">
124.600000 72.480000 16.710000
138.742136 58.337864 16.710000
149.808612 69.404341 20.036587
135.666477 83.546477 20.036587
        </DataArray>
      </Points>
      <Polys>
        <DataArray type="Int32" Name="connectivity" format="ascii" RangeMin="0" RangeMax="-1">
0 1 2 3
        </DataArray>
        <DataArray type="Int32" Name="offsets" format="ascii" RangeMin="4" RangeMax="4">
          4
        </DataArray>
      </Polys>
      <CellData Normals="slip">
        <DataArray type="Float32" Name="slip" NumberOfComponents="3" format="ascii">
-0.449582 -0.870911 -0.198470
        </DataArray>
      </CellData>
    </Piece>
    <Piece NumberOfPoints="4" NumberOfPolys="1">
      <Points>
        <DataArray type="Float32" Name="Fault Patch" NumberOfComponents="3" format="ascii">
181.300000 15.920000 16.710000
195.442136 1.777864 16.710000
206.508612 12.844341 20.036587
192.366477 26.986477 20.036587
        </DataArray>
      </Points>
      <Polys>
        <DataArray type="Int32" Name="connectivity" format="ascii" RangeMin="0" RangeMax="-1">
0 1 2 3
        </DataArray>
        <DataArray type="Int32" Name="offsets" format="ascii" RangeMin="4" RangeMax="4">
          4
        </DataArray>
      </Polys>
      <CellData Normals="slip">
        <DataArray type="Float32" Name="slip" NumberOfComponents="3" format="ascii">
-0.691655 -0.691655 -0.207912
        </DataArray>
      </CellData>
    </Piece>
    <Piece NumberOfPoints="4" NumberOfPolys="1">
      <Points>
        <DataArray type="Float32" Name="Fault Patch" NumberOfComponents="3" format="ascii">
195.500000 1.796000 16.710000
209.642136 -12.346136 16.710000
220.708612 -1.279659 20.036587
206.566477 12.862477 20.036587
        </DataArray>
      </Points>
      <Polys>
        <DataArray type="Int32" Name="connectivity" format="ascii" RangeMin="0" RangeMax="-1">
0 1 2 3
        </DataArray>
        <DataArray type="Int32" Name="offsets" format="ascii" RangeMin="4" RangeMax="4">
          4
        </DataArray>
      </Polys>
      <CellData Normals="slip">
        <DataArray type="Float32" Name="slip" NumberOfComponents="3" format="ascii">
-0.346880 -0.999144 -0.404615
        </DataArray>
      </CellData>
    </Piece>
    <Piece NumberOfPoints="4" NumberOfPolys="1">
      <Points>
        <DataArray type="Float32" Name="Fault Patch" NumberOfComponents="3" format="ascii">
209.700000 -12.330000 16.710000
223.842136 -26.472136 16.710000
234.908612 -15.405659 20.036587
220.766477 -1.263523 20.036587
        </DataArray>
      </Points>
      <Polys>
        <DataArray type="Int32" Name="connectivity" format="ascii" RangeMin="0" RangeMax="-1">
0 1 2 3
        </DataArray>
        <DataArray type="Int32" Name="offsets" format="ascii" RangeMin="4" RangeMax="4">
          4
        </DataArray>
      </Polys>
      <CellData Normals="slip">
        <DataArray type="Float32" Name="slip" NumberOfComponents="3" format="ascii">
-0.453153 -0.911845 -0.410319
        </DataArray>
      </CellData>
    </Piece>
    <Piece NumberOfPoints="4" NumberOfPolys="1">
      <Points>
        <DataArray type="Float32" Name="Fault Patch" NumberOfComponents="3" format="ascii">
224.000000 -26.460000 16.710000
238.142136 -40.602136 16.710000
249.208612 -29.535659 20.036587
235.066477 -15.393523 20.036587
        </DataArray>
      </Points>
      <Polys>
        <DataArray type="Int32" Name="connectivity" format="ascii" RangeMin="0" RangeMax="-1">
0 1 2 3
        </DataArray>
        <DataArray type="Int32" Name="offsets" format="ascii" RangeMin="4" RangeMax="4">
          4
        </DataArray>
      </Polys>
      <CellData Normals="slip">
        <DataArray type="Float32" Name="slip" NumberOfComponents="3" format="ascii">
-0.453153 -0.911845 -0.410319
        </DataArray>
      </CellData>
    </Piece>
    <Piece NumberOfPoints="4" NumberOfPolys="1">
      <Points>
        <DataArray type="Float32" Name="Fault Patch" NumberOfComponents="3" format="ascii">
50.720000 168.600000 20.040000
64.862136 154.457864 20.040000
75.928612 165.524341 23.366587
61.786477 179.666477 23.366587
        </DataArray>
      </Points>
      <Polys>
        <DataArray type="Int32" Name="connectivity" format="ascii" RangeMin="0" RangeMax="-1">
0 1 2 3
        </DataArray>
        <DataArray type="Int32" Name="offsets" format="ascii" RangeMin="4" RangeMax="4">
          4
        </DataArray>
      </Polys>
      <CellData Normals="slip">
        <DataArray type="Float32" Name="slip" NumberOfComponents="3" format="ascii">
-0.769072 -0.604883 -0.206506
        </DataArray>
      </CellData>
    </Piece>
    <Piece NumberOfPoints="4" NumberOfPolys="1">
      <Points>
        <DataArray type="Float32" Name="Fault Patch" NumberOfComponents="3" format="ascii">
64.850000 154.400000 20.040000
78.992136 140.257864 20.040000
90.058612 151.324341 23.366587
75.916477 165.466477 23.366587
        </DataArray>
      </Points>
      <Polys>
        <DataArray type="Int32" Name="connectivity" format="ascii" RangeMin="0" RangeMax="-1">
0 1 2 3
        </DataArray>
        <DataArray type="Int32" Name="offsets" format="ascii" RangeMin="4" RangeMax="4">
          4
        </DataArray>
      </Polys>
      <CellData Normals="slip">
        <DataArray type="Float32" Name="slip" NumberOfComponents="3" format="ascii">
-1.015354 -0.358601 -0.826023
        </DataArray>
      </CellData>
    </Piece>
    <Piece NumberOfPoints="4" NumberOfPolys="1">
      <Points>
        <DataArray type="Float32" Name="Fault Patch" NumberOfComponents="3" format="ascii">
78.990000 140.200000 20.040000
93.132136 126.057864 20.040000
104.198612 137.124341 23.366587
90.056477 151.266477 23.366587
        </DataArray>
      </Points>
      <Polys>
        <DataArray type="Int32" Name="connectivity" format="ascii" RangeMin="0" RangeMax="-1">
0 1 2 3
        </DataArray>
        <DataArray type="Int32" Name="offsets" format="ascii" RangeMin="4" RangeMax="4">
          4
        </DataArray>
      </Polys>
      <CellData Normals="slip">
        <DataArray type="Float32" Name="slip" NumberOfComponents="3" format="ascii">
-0.460588 -0.921223 -1.453805
        </DataArray>
      </CellData>
    </Piece>
    <Piece NumberOfPoints="4" NumberOfPolys="1">
      <Points>
        <DataArray type="Float32" Name="Fault Patch" NumberOfComponents="3" format="ascii">
93.130000 126.100000 20.040000
107.272136 111.957864 20.040000
118.338612 123.024341 23.366587
104.196477 137.166477 23.366587
        </DataArray>
      </Points>
      <Polys>
        <DataArray type="Int32" Name="connectivity" format="ascii" RangeMin="0" RangeMax="-1">
0 1 2 3
        </DataArray>
        <DataArray type="Int32" Name="offsets" format="ascii" RangeMin="4" RangeMax="4">
          4
        </DataArray>
      </Polys>
      <CellData Normals="slip">
        <DataArray type="Float32" Name="slip" NumberOfComponents="3" format="ascii">
0.794582 -2.140606 -1.820769
        </DataArray>
      </CellData>
    </Piece>
    <Piece NumberOfPoints="4" NumberOfPolys="1">
      <Points>
        <DataArray type="Float32" Name="Fault Patch" NumberOfComponents="3" format="ascii">
107.300000 111.900000 20.040000
121.442136 97.757864 20.040000
132.508612 108.824341 23.366587
118.366477 122.966477 23.366587
        </DataArray>
      </Points>
      <Polys>
        <DataArray type="Int32" Name="connectivity" format="ascii" RangeMin="0" RangeMax="-1">
0 1 2 3
        </DataArray>
        <DataArray type="Int32" Name="offsets" format="ascii" RangeMin="4" RangeMax="4">
          4
        </DataArray>
      </Polys>
      <CellData Normals="slip">
        <DataArray type="Float32" Name="slip" NumberOfComponents="3" format="ascii">
1.155304 -2.465845 -1.575796
        </DataArray>
      </CellData>
    </Piece>
    <Piece NumberOfPoints="4" NumberOfPolys="1">
      <Points>
        <DataArray type="Float32" Name="Fault Patch" NumberOfComponents="3" format="ascii">
121.400000 97.790000 20.040000
135.542136 83.647864 20.040000
146.608612 94.714341 23.366587
132.466477 108.856477 23.366587
        </DataArray>
      </Points>
      <Polys>
        <DataArray type="Int32" Name="connectivity" format="ascii" RangeMin="0" RangeMax="-1">
0 1 2 3
        </DataArray>
        <DataArray type="Int32" Name="offsets" format="ascii" RangeMin="4" RangeMax="4">
          4
        </DataArray>
      </Polys>
      <CellData Normals="slip">
        <DataArray type="Float32" Name="slip" NumberOfComponents="3" format="ascii">
0.559281 -1.859167 -0.976865
        </DataArray>
      </CellData>
    </Piece>
    <Piece NumberOfPoints="4" NumberOfPolys="1">
      <Points>
        <DataArray type="Float32" Name="Fault Patch" NumberOfComponents="3" format="ascii">
135.600000 83.640000 20.040000
149.742136 69.497864 20.040000
160.808612 80.564341 23.366587
146.666477 94.706477 23.366587
        </DataArray>
      </Points>
      <Polys>
        <DataArray type="Int32" Name="connectivity" format="ascii" RangeMin="0" RangeMax="-1">
0 1 2 3
        </DataArray>
        <DataArray type="Int32" Name="offsets" format="ascii" RangeMin="4" RangeMax="4">
          4
        </DataArray>
      </Polys>
      <CellData Normals="slip">
        <DataArray type="Float32" Name="slip" NumberOfComponents="3" format="ascii">
-0.238917 -1.081576 -0.396941
        </DataArray>
      </CellData>
    </Piece>
    <Piece NumberOfPoints="4" NumberOfPolys="1">
      <Points>
        <DataArray type="Float32" Name="Fault Patch" NumberOfComponents="3" format="ascii">
149.800000 69.500000 20.040000
163.942136 55.357864 20.040000
175.008612 66.424341 23.366587
160.866477 80.566477 23.366587
        </DataArray>
      </Points>
      <Polys>
        <DataArray type="Int32" Name="connectivity" format="ascii" RangeMin="0" RangeMax="-1">
0 1 2 3
        </DataArray>
        <DataArray type="Int32" Name="offsets" format="ascii" RangeMin="4" RangeMax="4">
          4
        </DataArray>
      </Polys>
      <CellData Normals="slip">
        <DataArray type="Float32" Name="slip" NumberOfComponents="3" format="ascii">
-0.675018 -0.707917 -0.207855
        </DataArray>
      </CellData>
    </Piece>
    <Piece NumberOfPoints="4" NumberOfPolys="1">
      <Points>
        <DataArray type="Float32" Name="Fault Patch" NumberOfComponents="3" format="ascii">
163.900000 55.370000 20.040000
178.042136 41.227864 20.040000
189.108612 52.294341 23.366587
174.966477 66.436477 23.366587
        </DataArray>
      </Points>
      <Polys>
        <DataArray type="Int32" Name="connectivity" format="ascii" RangeMin="0" RangeMax="-1">
0 1 2 3
        </DataArray>
        <DataArray type="Int32" Name="offsets" format="ascii" RangeMin="4" RangeMax="4">
          4
        </DataArray>
      </Polys>
      <CellData Normals="slip">
        <DataArray type="Float32" Name="slip" NumberOfComponents="3" format="ascii">
-0.509946 -0.836078 -0.202308
        </DataArray>
      </CellData>
    </Piece>
    <Piece NumberOfPoints="4" NumberOfPolys="1">
      <Points>
        <DataArray type="Float32" Name="Fault Patch" NumberOfComponents="3" format="ascii">
178.100000 41.230000 20.040000
192.242136 27.087864 20.040000
203.308612 38.154341 23.366587
189.166477 52.296477 23.366587
        </DataArray>
      </Points>
      <Polys>
        <DataArray type="Int32" Name="connectivity" format="ascii" RangeMin="0" RangeMax="-1">
0 1 2 3
        </DataArray>
        <DataArray type="Int32" Name="offsets" format="ascii" RangeMin="4" RangeMax="4">
          4
        </DataArray>
      </Polys>
      <CellData Normals="slip">